190
Atoms. Timestep: 0
2 -2.78975 6.61147 -0.768648
7 -0.440158 2.4253 0.012213
1 -5.03528 7.21152 1.55606
2 -5.71893 3.62247 2.30245
4 -1.67009 2.32209 3.34709
1 -8.58801 2.78744 5.24134
2 -7.08895 -0.508309 6.2242
3 -2.29646 0.09256 6.79462
1 -8.45215 -1.86961 8.54795
2 -5.43746 -3.75554 9.58525
6 -2.38775 -0.77437 10.1333
1 -5.74501 -6.60558 12.9046
2 -2.09749 -6.49186 13.7817
3 -0.736756 -1.82248 13.7886
1 -0.636376 -8.47567 16.5231
2 2.2934 -6.19888 17.0288
3 0.720169 -1.59684 17.0466
1 4.81439 -6.92415 19.6179
2 5.93022 -3.36735 19.9716
3 2.00395 -0.50575 20.2011
1 8.32544 -2.78019 22.9102
2 7.31283 0.759347 23.4778
5 2.37696 1.36459 23.5471
1 8.84811 2.71347 26.1287
2 6.0285 5.14964 26.6773
5 1.57481 2.93855 26.7606
1 6.20236 7.54989 28.914
2 2.50877 8.13493 29.307
4 1.26835 4.0013 30.0478
1 1.65556 10.839 32.6601
2 -1.63174 9.28093 33.4196
5 -1.34711 4.31592 33.4755
1 -3.70794 10.7298 35.4672
2 -5.57909 7.59403 36.0623
6 -2.46167 4.69865 36.6833
1 -8.77831 7.93063 39.4557
2 -8.59719 4.32216 40.1832
5 -3.86411 2.80124 40.3221
1 -10.8883 2.50225 42.5057
2 -8.56168 -0.370305 43.0715
3 -4.05707 1.40508 43.5322
1 -9.54877 -2.60412 46.0293
2 -6.06747 -3.63594 46.8591
5 -2.9034 0.198558 47.0029
1 -5.42484 -5.89015 49.6355
2 -1.89445 -4.80745 50.3774
5 -1.35665 0.136593 50.3274
1 -0.11678 -6.16875 52.7811
2 2.33943 -3.35898 53.2388
4 -0.511178 -0.06546 53.6849
1 4.92852 -3.56484 56.1086
2 5.37335 0.153776 56.4294
4 1.16948 1.24527 56.9856
1 7.73117 1.66144 59.1027
2 5.96916 4.97745 59.275
4 1.93167 3.50266 60.1104
1 7.37488 7.29294 61.8063
2 4.1287 9.01237 62.3268
6 1.38996 5.80746 63.1722
1 3.63425 12.0355 64.8969
2 -0.10549 11.6855 65.3555
4 -0.175999 7.44754 66.4548
1 -2.08218 14.1845 68.0786
2 -4.8269 11.7381 68.8239
3 -2.82134 7.38587 69.656
1 -7.0863 12.5015 71.086
2 -8.05877 8.97311 71.7998
4 -4.15062 7.37054 72.9539
1 -11.0573 8.72943 74.9987
2 -9.93594 5.37877 76.1502
5 -4.98531 5.1331 76.5577
1 -11.743 3.66886 78.2511
2 -8.88605 1.5352 79.2387
6 -5.70266 4.36849 79.8105
1 -9.13248 -0.987425 82.3313
2 -5.43676 -1.15218 83.1282
4 -4.71119 3.15167 83.4785
1 -4.62216 -3.15579 86.1389
2 -1.57452 -1.17319 86.878
6 -2.97793 2.89111 86.9294
1 0.537786 -1.88369 89.6259
2 2.08256 1.54253 90.0793
6 -1.31551 4.17643 90.1386
1 4.34234 2.22992 92.7137
2 3.77219 5.96007 93.0168
6 -0.508356 6.30828 93.2238
1 5.88879 8.29113 96.0698
2 3.3295 11.0315 96.2317
3 -1.05591 8.93391 96.3847
1 3.7941 13.0903 98.39
2 0.212093 13.9735 98.7211
6 -1.79129 10.2474 99.4897
1 -0.565747 17.4002 101.806
2 -4.04084 16.3067 102.364
13 -4.25906 11.3648 102.876
2 -10.0515 4.25167 103.115
10 -6.26265 6.23057 102.652
1 -12.901 4.37408 99.4099
2 -11.7517 7.74313 98.4549
5 -6.79661 8.05045 98.7519
1 -12.8987 9.50158 95.9284
2 -9.95344 11.8072 95.5456
4 -6.78313 8.79202 95.3639
1 -10.2682 14.2287 91.896
2 -6.58985 14.4498 91.4138
5 -4.38873 10.0265 91.983
1 -5.10085 16.2357 88.6218
2 -1.84366 14.3499 88.4767
5 -2.45426 9.43473 88.9239
1 0.536917 15.077 85.8296
2 2.23604 11.7173 85.7219
5 -0.986217 7.93376 85.917
1 5.22537 11.1096 83.566
2 4.77505 7.39982 83.4254
3 0.029198 6.47605 82.8947
1 6.89584 5.68283 80.7295
2 4.50715 2.88611 80.1411
5 -0.19041 4.43908 79.6335
1 5.49017 0.340562 78.3639
2 2.01859 -0.699659 77.6183
6 0.099607 2.9965 76.5491
1 1.30136 -3.95663 74.7705
2 -2.12772 -2.7908 73.7862
3 -1.8869 2.01036 73.0467
1 -3.73443 -4.3269 71.364
2 -5.92649 -1.43094 70.5201
4 -2.85436 1.56708 69.6538
1 -8.70481 -1.96575 67.4273
2 -8.8085 1.65787 66.4609
3 -4.2392 3.29349 66.1397
1 -10.8668 2.48367 63.3314
2 -8.89998 5.51079 62.4141
5 -3.98923 4.74184 62.5797
1 -10.0181 7.87768 59.749
2 -6.62253 9.3294 59.1592
3 -3.39066 5.69641 59.26
1 -6.05218 11.7572 56.4399
2 -2.41303 10.9585 56.062
3 -1.85941 6.12646 56.0558
1 -0.355664 12.698 53.5411
2 2.18807 9.96334 53.2686
3 -0.123289 5.6953 52.9582
1 4.1991 10.4455 51.0699
2 4.89724 6.84873 50.5243
6 1.0568 5.06559 49.7774
1 7.31624 5.83731 48.1487
2 6.00453 2.3617 47.4193
6 1.82721 3.00977 46.6319
1 7.63598 -0.008235 44.6429
2 4.60429 -2.18277 44.0087
4 1.7382 1.02049 43.1745
1 5.0578 -4.66266 41.2912
2 1.44797 -4.6803 40.4339
6 0.509204 -0.525566 39.8459
1 0.221139 -7.57492 36.9724
2 -2.79797 -5.60651 36.2018
5 -1.7508 -0.744886 36.1511
1 -5.05518 -6.71929 34.1353
2 -6.41563 -3.33333 33.5268
6 -2.88442 -0.953415 32.9338
1 -9.47973 -2.75542 30.4425
2 -8.6311 0.843607 29.7985
3 -3.7886 1.1754 29.4935
1 -10.1076 2.1135 27.4924
2 -7.45078 4.59489 26.7809
6 -3.87438 2.27393 26.2238
1 -7.888 6.99807 24.221
2 -4.24868 7.71244 23.4606
6 -2.53828 3.79859 22.9667
1 -3.1141 10.1558 20.5056
2 0.355423 8.73336 19.9955
4 -0.793263 4.5426 19.4571
1 2.69293 10.0687 17.2205
2 4.69968 6.90459 16.9236
4 1.39118 4.124 16.2181
1 7.56357 6.59159 14.3457
2 7.40248 2.84314 14.121
4 3.15505 2.45345 13.13
1 10.068 1.15926 11.0645
2 7.88278 -1.77283 10.402
5 3.11388 -0.444191 9.92205
1 8.63323 -4.24674 8.3746
2 5.14143 -5.53729 7.84676
4 3.21625 -1.76971 6.71878
1 4.64681 -8.61009 5.03953
2 1.13313 -7.65532 4.13628
3 0.991764 -2.85237 3.38291
1 -0.421541 -9.31687 1.76356
2 -2.84812 -6.59652 0.977968
12 -0.035655 -3.38003 0.019816
190
Atoms. Timestep: 2000
2 -2.05562 6.38748 -1.17521
7 -0.263284 2.19725 -0.369975
1 -5.10923 6.96167 0.900083
2 -5.99148 3.53097 1.5786
4 -2.04189 1.97444 2.86458
1 -9.05142 2.68127 4.72714
2 -7.50108 -0.436681 6.1022
3 -2.62526 0.518492 6.7632
1 -8.73428 -1.48413 8.18543
2 -5.44921 -3.44836 9.77858
6 -2.26409 -0.398052 10.0785
1 -5.51324 -6.1124 13.0549
2 -1.81246 -5.63924 13.7864
3 -0.701663 -1.02055 13.9969
1 -0.380623 -7.52441 16.2909
2 2.60326 -5.43945 16.8152
3 0.882745 -0.681035 17.3434
1 5.36743 -6.25927 18.7071
2 6.83188 -2.56534 19.1763
3 3.26207 0.542287 19.7759
1 9.5872 -2.32032 22.2569
2 9.20553 1.48689 22.8867
5 4.17023 2.44238 23.0612
1 11.0642 3.07857 25.6781
2 8.58661 5.55194 26.448
5 4.3614 4.04163 26.4572
1 9.18327 7.51782 28.3659
2 5.88669 8.54762 29.2765
4 4.26216 4.63472 29.9836
1 5.87653 11.0029 33.2146
2 2.40869 10.0163 34.0447
5 1.95591 4.92833 33.5484
1 0.589101 11.7014 36.1066
2 -1.64098 8.8535 36.6553
6 1.18795 5.41243 36.956
1 -4.35523 9.43875 40.1402
2 -4.52708 6.19907 40.9654
5 -0.188238 4.15711 40.8683
1 -7.40204 4.50881 42.9369
2 -5.44196 1.72337 43.7134
3 -0.559595 3.2553 44.1441
1 -6.67289 -0.377093 46.6378
2 -3.06693 -1.85454 47.7455
5 0.266816 1.4783 47.5082
1 -2.64749 -3.99368 50.593
2 0.941568 -3.21482 51.3719
5 1.6206 1.39705 50.9197
1 2.3259 -4.35278 53.8923
2 4.56694 -1.32802 54.4348
4 1.69548 1.46557 54.374
1 7.05181 -0.891665 57.8201
2 7.15205 2.81566 57.9687
4 3.13897 3.74212 57.3702
1 8.97834 4.94826 60.5512
2 7.1287 8.00325 60.0244
4 3.04981 6.2285 60.2575
1 7.9158 10.5201 62.9258
2 4.63256 11.7032 62.9887
6 2.13973 8.25616 63.3829
1 3.34633 14.5119 66.1816
2 -0.742153 14.4746 65.7541
4 -0.845675 10.2872 66.3991
1 -3.26581 16.6805 68.6029
2 -5.96793 13.6085 68.7639
3 -3.6764 8.99509 69.1612
1 -8.73889 13.7149 70.8634
2 -9.65813 9.85096 70.8941
4 -5.6922 8.21747 72.0795
1 -13.1117 9.25028 73.8537
2 -11.6873 5.81751 75.0573
5 -6.51534 5.58463 75.5216
1 -13.6397 3.73534 77.2203
2 -10.5218 1.68642 78.0239
6 -7.23223 4.64654 78.6689
1 -10.4522 -1.19769 81.0534
2 -6.67059 -1.26591 81.7158
4 -6.00475 3.41488 82.192
1 -5.55765 -3.49729 84.8309
2 -2.74589 -1.47383 85.7483
6 -4.20524 2.5605 85.6772
1 -0.815745 -2.13121 88.1821
2 0.800052 1.29678 88.7633
6 -2.4883 3.84465 88.9757
1 3.30911 1.64494 91.2509
2 3.0291 5.15747 91.747
6 -1.30283 5.52169 92.3925
1 5.17282 6.8005 94.8
2 3.09583 9.95216 95.651
3 -1.72827 7.48824 96.0631
1 3.99138 11.4811 98.1451
2 0.316913 12.4264 99.0631
6 -1.84709 8.63423 99.3628
1 0.121088 15.0618 103.041
2 -3.78686 14.5087 103.217
13 -4.62877 9.14717 102.944
2 -9.86886 1.793 103.029
10 -6.55095 3.97809 102.366
1 -13.5822 2.71081 100.383
2 -12.1366 6.08742 98.8836
5 -6.88737 6.58561 98.8013
1 -13.6311 8.32822 96.87
2 -10.4307 10.6426 96.2026
4 -7.30414 7.77471 95.4704
1 -11.0127 13.3527 92.8493
2 -7.17119 13.7838 92.2526
5 -4.89738 9.60957 92.1734
1 -5.61428 16.0519 89.6246
2 -2.50927 14.0365 89.1395
5 -3.37881 9.32564 88.8609
1 -0.258629 15.1583 86.1404
2 1.13982 11.6476 85.4011
5 -2.31981 8.01146 85.3785
1 3.78073 11.2664 83.1108
2 3.54518 7.36364 82.6679
3 -0.844575 6.30608 82.7237
1 5.24823 6.0448 79.6775
2 3.01031 3.22136 79.3411
5 -1.65925 4.64946 79.2208
1 3.92439 0.665131 77.3433
2 0.457621 -0.473068 76.6138
6 -1.57157 3.30469 76.0844
1 -0.231358 -3.25902 73.8946
2 -3.49552 -1.62662 72.4814
3 -3.2796 3.14195 72.2419
1 -4.89663 -3.18745 69.6917
2 -6.5217 0.183222 68.5879
4 -3.45774 3.04361 68.7098
1 -8.72638 -0.291668 65.1134
2 -8.58257 3.51172 64.2672
3 -4.2011 5.48304 65.033
1 -10.0216 4.44113 61.1229
2 -7.73679 7.34556 60.3312
5 -2.74787 6.5628 61.6059
1 -8.69624 9.71573 57.3572
2 -5.24121 11.29 57.0625
3 -1.99991 7.85466 58.3435
1 -4.33785 13.2656 54.1853
2 -0.680969 12.3449 54.0331
3 -0.0343799 8.14755 55.3635
1 1.87068 13.9454 51.3891
2 4.36189 11.3782 51.9483
3 2.08649 6.85556 52.396
1 6.63205 11.6067 49.8427
2 7.66506 8.57577 50.3706
6 4.3342 6.28607 49.7401
1 10.4587 7.47874 48.7418
2 9.27384 3.58369 47.9894
6 5.34404 3.7266 46.8581
1 11.3131 1.21232 45.0503
2 8.36033 -1.19917 44.227
4 5.38776 1.88835 43.3159
1 8.97535 -3.78831 41.6802
2 4.98376 -3.91477 40.4797
6 3.89497 0.30719 40.1161
1 4.08572 -6.98207 36.7773
2 0.770589 -5.31088 36.0164
5 1.68483 -0.347031 36.2837
1 -1.17941 -6.31287 33.6626
2 -2.85938 -3.09838 33.9469
6 0.310211 -0.293437 33.08
1 -6.30511 -2.16786 31.6937
2 -5.42638 1.53767 30.9091
3 -0.747015 1.93829 29.7582
1 -7.31223 3.06248 28.7849
2 -4.92123 6.13888 27.9841
6 -1.231 3.91027 26.8397
1 -5.90075 8.84987 25.3557
2 -2.34005 9.1795 23.6434
6 -0.691529 5.0141 23.208
1 -1.63815 11.1798 20.101
2 1.44311 9.68213 19.4887
4 0.322762 5.72849 19.4543
1 3.28369 10.6219 16.4107
2 5.11352 7.6814 16.3674
4 1.87613 4.87539 15.9858
1 7.87147 7.14828 13.4368
2 7.67613 3.43615 13.1826
4 3.11264 3.40257 12.4704
1 10.0728 1.72503 10.075
2 7.94524 -1.14409 10.0185
5 2.99834 -0.172944 9.75391
1 8.5957 -4.27008 8.28965
2 5.06094 -5.25014 7.71606
4 3.39202 -1.69094 6.74529
1 4.47209 -8.99932 5.78488
2 0.85445 -8.04181 4.75153
3 0.833312 -2.99014 3.64394
1 -0.704167 -10.045 2.62009
2 -2.62879 -7.23658 0.894823
12 0.284648 -4.30023 0.416142
190
Atoms. Timestep: 4000
2 -0.406854 9.09876 -0.278791
7 1.86763 4.64785 1.07518
1 -2.58614 9.92881 2.02441
2 -3.96296 6.52239 3.1819
4 -0.38781 4.62176 3.89525
1 -6.73074 6.23627 6.487
2 -5.77564 2.86501 7.2479
3 -0.852239 2.49632 7.57461
1 -7.40063 1.92247 9.91647
2 -4.82057 -0.778673 10.6235
6 -1.04091 1.3333 10.884
1 -5.70527 -3.60129 13.7747
2 -2.08221 -4.58876 14.4408
3 0.200527 -0.147106 14.8202
1 -0.892733 -7.23749 17.4935
2 2.07546 -5.73435 17.9339
3 1.61424 -1.37972 17.788
1 4.30727 -6.83765 20.8428
2 6.266 -4.04019 20.7545
3 2.84604 0.0178363 21.102
1 9.14991 -3.69151 22.981
2 8.79916 0.164427 23.4985
5 4.04138 1.75873 24.1885
1 11.373 2.47853 25.192
2 8.99572 4.96418 26.4433
5 4.61468 3.29125 27.5638
1 9.74124 7.37415 28.5992
2 6.35802 8.56435 29.5296
4 4.90296 4.71347 30.7337
1 6.55563 10.7853 32.8464
2 2.86375 10.2841 33.7145
5 2.2786 5.49131 34.3947
1 1.29093 12.4999 35.939
2 -1.14007 10.4342 36.4605
6 1.25898 6.62424 37.6251
1 -3.97948 12.3628 39.9401
2 -5.00375 8.7456 40.6696
5 -0.505132 5.79766 41.461
1 -8.15013 7.52221 43.1349
2 -6.15539 4.08831 44.4569
3 -1.34635 4.738 44.8864
1 -7.63859 1.88007 47.0202
2 -4.51927 0.263453 48.0385
5 -0.867829 3.29187 48.382
1 -4.55485 -2.53893 50.5236
2 -1.16409 -2.22878 51.4949
5 0.572248 2.67266 51.6428
1 -0.000967966 -3.69831 53.9588
2 2.68087 -1.38939 54.7576
4 0.543099 2.05669 55.0071
1 4.96233 -2.13959 58.0211
2 6.16271 1.51309 58.634
4 2.23577 3.23279 58.3239
1 8.17247 2.71986 62.0951
2 7.12321 6.42472 62.004
4 2.67781 5.47267 61.4247
1 8.34729 8.53766 64.8277
2 5.34987 10.6709 64.845
6 2.1351 7.92093 64.3621
1 4.62939 13.4733 67.1956
2 0.911763 13.7989 66.8156
4 -0.222105 9.47778 67.4871
1 -1.36063 17.0036 68.9461
2 -4.49717 14.8831 69.4506
3 -3.423 10.227 70.2377
1 -6.87292 16.0459 71.3464
2 -8.32654 12.6363 72.1739
4 -5.01391 11.0392 73.3775
1 -11.6772 13.0533 75.0507
2 -10.9842 9.90054 76.4266
5 -6.28853 8.74341 77.0704
1 -13.2826 8.28845 78.4584
2 -11.0248 6.19903 79.2193
6 -7.48343 8.43 80.4222
1 -11.6183 2.94448 81.7428
2 -7.94014 2.24181 82.6794
4 -7.03007 6.39105 83.8104
1 -7.36166 -0.253474 85.9813
2 -4.24637 1.75491 87.377
6 -5.35831 5.80824 87.4748
1 -2.47889 0.920033 90.468
2 -0.858945 4.16765 91.6558
6 -4.0935 7.28332 90.9386
1 0.313904 4.41276 94.8741
2 -0.198001 7.92999 95.6187
6 -4.31412 8.46041 94.6401
1 1.00488 9.39383 99.4845
2 -1.05856 12.1924 99.4496
3 -5.42352 10.6413 97.8674
1 -0.964282 13.7147 102.182
2 -4.33846 14.809 101.851
6 -6.86575 10.7526 100.962
1 -5.86476 17.2601 105.681
2 -9.49202 16.944 104.675
13 -10.2349 11.7346 104.417
2 -15.7747 5.1425 100.579
10 -12.0924 7.23888 101.899
1 -17.6919 6.98206 96.347
2 -16.1285 10.1443 96.7234
5 -11.3323 9.4604 98.3801
1 -16.4881 12.5808 94.4943
2 -13.5708 14.402 94.9103
4 -10.6636 11.3059 95.4264
1 -12.9767 17.0909 90.963
2 -9.59349 17.6336 91.1029
5 -7.57724 12.9948 91.9822
1 -7.39697 19.1738 88.5072
2 -4.30355 17.2503 88.8218
5 -4.993 12.4934 89.364
1 -1.83478 17.8072 86.2966
2 -0.0111541 14.6401 86.9347
5 -2.94953 10.7192 86.8855
1 3.52634 14.028 85.7902
2 2.99381 10.3955 85.3469
3 -1.60872 9.2924 83.9756
1 5.27064 8.9498 82.944
2 2.63989 6.07946 81.7528
5 -2.01144 7.99218 80.2939
1 3.86166 3.48756 79.8096
2 0.465863 2.33361 78.3666
6 -1.24899 6.29501 77.3658
1 -0.0382213 -0.697221 75.5671
2 -3.72655 0.803228 74.2679
3 -3.55541 5.37481 73.6412
1 -5.39067 -1.09812 71.3772
2 -7.00272 1.70058 70.2146
4 -3.90223 4.34669 70.3179
1 -8.84334 1.25617 66.265
2 -8.57211 4.52256 65.5355
3 -4.1617 5.61916 65.9638
1 -10.0694 5.51809 61.6591
2 -7.80058 8.40565 61.1241
5 -3.04718 7.20366 62.4846
1 -8.21792 10.2912 57.9734
2 -4.84126 11.9689 58.2884
3 -1.74435 8.40675 59.5041
1 -3.79737 14.3984 55.9707
2 0.0370493 13.3756 56.1699
3 0.487076 8.40725 56.8565
1 2.72247 14.6897 53.6094
2 4.72778 11.6425 54.0522
3 1.96612 7.73767 53.5611
1 7.56505 11.678 52.128
2 7.75818 8.04042 51.9193
6 4.21401 6.77014 51.1559
1 10.1691 6.0993 50.1265
2 8.26576 3.38413 49.3081
6 4.7011 4.87376 48.0298
1 9.52227 0.813601 47.0121
2 6.24512 -0.958822 46.1612
4 4.09041 2.40912 45.0305
1 6.59526 -3.42251 43.5531
2 3.07744 -3.08208 42.4465
6 2.87885 1.25445 41.4193
1 2.08627 -6.15654 39.3203
2 -0.581299 -3.71956 37.837
5 0.786654 1.19435 37.5503
1 -2.55943 -4.72714 35.9444
2 -3.65727 -1.64922 34.8922
6 0.0189794 0.403482 34.1188
1 -6.73142 -1.10052 31.9687
2 -5.34353 2.24802 30.7798
3 -0.839339 1.9814 30.3884
1 -6.71108 3.55446 28.8199
2 -4.4057 5.50051 28.3433
6 -1.184 3.33183 27.3473
1 -4.82579 8.32966 26.5122
2 -1.33973 8.67485 25.407
6 -0.285378 5.17428 23.9626
1 0.0438384 11.4255 23.0106
2 3.40279 9.2285 21.6462
4 1.53455 5.75216 20.4001
1 5.3781 10.7308 19.0073
2 6.99928 7.12019 17.8839
4 3.12637 4.37809 17.128
1 9.44664 7.09888 15.1589
2 9.1362 3.66032 14.6053
4 4.86992 3.20064 13.5095
1 11.5252 2.36186 10.8665
2 9.06719 -0.601426 9.9914
5 4.3087 0.886171 10.0731
1 9.65871 -3.05043 7.73201
2 5.77312 -3.91584 6.77093
4 4.12228 -0.187608 6.83497
1 5.3011 -5.89881 3.03568
2 2.24689 -4.93213 2.30465
3 1.84423 -0.551534 3.43967
1 -0.147861 -6.3742 3.10352
2 -2.26646 -3.57638 3.14259
12 0.0150393 -0.685161 0.243456
190
Atoms. Timestep: 6000
2 0.899089 9.77434 2.75376
7 2.94726 4.85394 2.4544
1 -0.489953 9.92768 5.38575
2 -2.01372 6.98436 5.28142
4 1.66406 4.55687 5.838
1 -4.97337 6.07933 8.69068
2 -4.24298 2.22711 8.74944
3 0.569357 2.10188 9.49628
1 -5.63469 0.964538 10.8449
2 -3.17047 -1.7405 11.5066
6 0.470026 0.382864 12.461
1 -3.79727 -4.82194 14.4215
2 -0.111018 -5.66196 14.9983
3 1.80415 -1.38214 15.9645
1 1.12945 -8.1976 17.1425
2 4.64708 -6.13845 18.4126
3 3.71894 -1.73481 18.9874
1 6.69458 -7.41908 21.1799
2 8.46054 -4.09572 21.6529
3 5.3183 -0.836549 22.0741
1 10.9612 -3.88792 24.4186
2 10.1007 -0.170578 25.1799
5 4.95176 0.939002 25.5716
1 11.5598 1.54804 28.5464
2 8.71633 3.97997 29.3926
5 3.78036 2.20148 28.8584
1 9.1399 6.41065 31.7645
2 5.4414 7.40148 32.0804
4 3.73813 3.23166 32.4883
1 4.25067 9.82419 35.2472
2 0.896115 8.83522 34.9727
5 0.676905 4.03253 35.1769
1 -1.48428 10.8227 36.2415
2 -4.12659 7.92409 36.3439
6 -1.85095 4.74909 37.486
1 -7.94229 9.01398 39.3753
2 -8.17075 5.23815 40.557
5 -3.70107 3.05893 41.4068
1 -10.7472 3.934 42.7408
2 -8.657 0.880379 44.4127
3 -3.94169 2.32974 44.8554
1 -10.1581 -0.269422 47.9113
2 -6.54611 -1.57591 49.0967
5 -3.07569 1.49704 48.5573
1 -6.30248 -3.22711 51.9933
2 -2.6131 -2.24904 52.5296
5 -1.66104 2.59903 51.8451
1 -0.872219 -3.40925 54.955
2 1.81851 -0.522952 54.8356
4 -0.901992 3.23019 55.2097
1 4.68821 -0.58547 57.9556
2 5.42508 3.05368 57.8838
4 1.61271 4.54349 57.9483
1 7.7841 4.68531 60.2264
2 6.23924 8.05491 60.4844
4 1.84753 6.78048 61.2346
1 7.74238 10.3112 63.0414
2 4.81848 12.1978 63.218
6 1.48105 9.53859 63.7728
1 4.48835 15.3393 65.5798
2 0.785147 15.3984 65.4102
4 0.0533774 11.4705 66.8998
1 -1.57806 18.2275 67.5874
2 -4.68629 16.3213 67.8923
3 -3.20638 12.5221 69.5935
1 -7.07046 17.6661 69.6305
2 -8.21955 14.5125 70.8478
4 -4.57099 12.8681 72.8399
1 -11.3774 14.9473 73.8058
2 -10.4585 11.8609 75.0788
5 -5.65307 11.391 76.7246
1 -12.6028 10.4268 76.744
2 -9.93119 7.8533 78.1361
6 -7.05164 10.6509 79.7377
1 -10.5755 5.12269 81.0512
2 -6.50954 4.69909 82.0082
4 -6.01606 8.45537 83.1096
1 -5.45471 2.07577 84.7588
2 -2.25267 4.3468 85.737
6 -4.30676 8.1101 86.4918
1 0.576571 3.33796 88.2809
2 1.28531 6.67056 89.671
6 -2.90196 9.06088 89.8503
1 3.26169 7.18992 93.0503
2 1.54256 10.637 94.1942
6 -3.18126 10.0472 93.6023
1 2.52199 11.7467 98.2746
2 -0.707502 14.3133 98.4829
3 -4.56202 12.0651 97.0587
1 -0.89588 15.6768 101.283
2 -4.34864 16.4714 100.757
6 -5.978 12.8468 100.15
1 -6.33022 19.0351 104.024
2 -9.9125 17.6234 103.234
13 -9.40985 12.6792 103.013
2 -12.944 4.71606 99.1249
10 -10.3706 7.50293 101.572
1 -15.6898 6.44829 95.8244
2 -15.434 9.53921 96.2239
5 -10.6469 10.723 98.2948
1 -16.3708 11.6257 94.4355
2 -14.0005 13.8227 94.82
4 -10.1636 11.0989 94.7826
1 -14.4696 16.6862 91.2324
2 -10.9532 17.5325 91.1302
5 -7.81826 13.6115 91.7808
1 -9.62737 19.9027 88.5746
2 -5.57998 18.9603 89.0624
5 -4.75828 14.2215 89.7201
1 -3.11545 20.6791 86.874
2 -1.14934 18.077 86.0982
5 -3.25135 13.63 86.2846
1 1.59546 18.2602 84.201
2 1.92384 14.2044 84.2852
3 -1.98303 12.6023 83.2537
1 4.64496 12.1867 82.0566
2 2.73983 9.30115 81.6838
5 -1.2928 10.3516 80.1674
1 4.10868 6.50801 80.3151
2 0.768562 5.15994 79.0652
6 -0.942326 8.44441 77.2859
1 0.444669 1.65323 76.0412
2 -3.05037 2.93744 74.8202
3 -2.38343 7.55626 73.6067
1 -4.69786 1.25608 72.1777
2 -6.63687 4.13265 71.2535
4 -3.29053 6.8284 70.1156
1 -9.67443 3.56929 68.0604
2 -9.44185 6.87147 66.4149
3 -4.65818 7.88694 66.2264
1 -11.131 7.51588 63.3356
2 -8.69818 10.2149 62.0095
5 -3.8506 9.22319 62.647
1 -9.80083 12.7077 59.5827
2 -6.20697 13.6028 58.5172
3 -2.79206 9.77766 59.3639
1 -5.51247 15.3485 55.4059
2 -1.67496 14.4145 55.0026
3 -0.949277 9.52218 56.3673
1 0.366857 15.4368 52.3001
2 2.79636 12.2529 52.9699
3 0.1593 8.41151 53.0697
1 4.71059 12.2472 50.8119
2 5.45121 8.39116 50.9957
6 1.983 6.90909 50.4533
1 7.81544 7.07604 48.9427
2 6.44923 3.58407 48.6571
6 1.98541 4.12588 47.8754
1 7.7814 0.554106 46.3484
2 4.59501 -1.6419 46.2295
4 1.74783 1.36239 45.0845
1 4.78558 -4.37888 44.0743
2 1.39426 -4.38562 43.1392
6 0.566326 -0.665557 42.0465
1 0.0955667 -7.87202 40.1814
2 -2.22226 -5.98885 38.1616
5 -1.19727 -0.735054 38.2061
1 -4.07065 -7.35715 35.6107
2 -5.14918 -3.50953 34.5144
6 -1.48079 -1.06242 34.7278
1 -7.42717 -2.93672 30.8977
2 -6.86364 0.796553 30.7431
3 -1.86386 1.3515 31.5365
1 -7.93224 2.10365 28.4275
2 -5.3983 4.46536 28.003
6 -1.88358 2.09479 28.1321
1 -5.23591 6.83415 25.8609
2 -1.70489 7.58499 25.7901
6 -0.0746086 4.059 25.432
1 0.344696 10.3648 22.9171
2 3.56566 8.72874 22.734
4 2.31662 4.77915 22.2157
1 6.21044 9.90747 20.4418
2 8.0682 6.75161 19.4994
4 4.52369 4.02006 18.756
1 10.4612 6.66362 17.0413
2 10.1499 2.82151 16.3612
4 5.82947 2.61902 15.3104
1 12.8328 1.54792 13.006
2 10.4702 -1.26087 12.1938
5 5.87965 0.386445 11.6131
1 11.154 -3.78346 10.0815
2 7.26973 -4.56802 8.80631
4 5.55729 -0.375317 8.27511
1 6.70917 -7.2144 5.39751
2 2.93117 -5.87981 4.80555
3 3.62382 -0.948533 4.55022
1 1.69104 -7.16019 1.84299
2 -0.612853 -3.81155 0.75994
12 2.37168 -0.844427 1.28397
190
Atoms. Timestep: 8000
2 -2.14749 5.84357 -1.70492
7 0.319145 2.36485 0.322372
1 -4.61248 6.96241 0.354354
2 -5.2115 3.58923 2.61415
4 -1.24113 2.80674 3.72631
1 -7.76553 3.72441 6.21032
2 -5.80756 0.51041 7.4866
3 -1.35814 1.85296 7.84262
1 -7.02314 -0.750187 9.90654
2 -3.81799 -2.28343 11.0433
6 -0.997051 1.23111 11.31
1 -3.85194 -5.23454 14.2066
2 -0.239019 -4.97918 15.2751
3 1.14011 -0.151546 14.7141
1 1.04264 -6.42795 18.5302
2 4.04307 -4.15981 18.474
3 2.24764 0.57706 17.9462
1 6.69116 -4.69458 20.6949
2 7.95 -0.825197 20.8874
3 3.90101 1.79683 20.914
1 10.4316 0.12975 23.914
2 8.97916 3.60252 24.4847
5 4.03361 3.8282 24.325
1 10.2182 6.16795 27.1006
2 7.1209 7.85403 27.2473
5 3.1574 5.21227 27.6361
1 6.80029 10.2374 28.9661
2 3.14534 10.1319 29.3491
4 2.5225 6.06586 30.7515
1 2.28362 13.2702 32.6494
2 -0.716514 11.5849 33.9739
5 0.0699733 6.35484 34.3922
1 -2.98366 12.9732 35.8245
2 -4.84869 9.46994 36.0664
6 -1.63517 6.97731 37.2524
1 -8.27729 9.22426 38.8245
2 -7.708 5.26938 40.0403
5 -3.13305 4.26704 40.3993
1 -9.86981 3.62984 42.7314
2 -7.05513 1.07088 43.9345
3 -2.70807 3.90592 44.0688
1 -7.68032 -1.16105 47.3354
2 -4.40865 -1.63959 48.1928
5 -1.96967 2.78454 48.1012
1 -3.31056 -3.88453 51.2102
2 0.0991288 -1.82409 52.1193
5 -0.331554 3.268 51.6225
1 2.11371 -2.68059 54.9963
2 4.5127 0.840975 55.1337
4 1.10439 3.84501 54.7824
1 6.52418 1.21774 57.9607
2 6.87391 4.94662 57.9956
4 2.54774 5.67353 58.2004
1 8.83102 6.5201 60.6279
2 6.49033 10.0212 60.4991
4 2.59832 7.78145 61.4686
1 7.48027 13.1728 62.9349
2 3.58239 14.332 63.2359
6 1.27961 10.5243 63.8397
1 2.05942 17.519 65.589
2 -1.60001 16.2054 66.1057
4 -0.397306 12.3172 66.9068
1 -4.11774 18.0082 68.8751
2 -5.71281 15.0172 69.9887
3 -2.27919 11.2309 70.2618
1 -7.32475 15.1824 72.426
2 -7.62198 11.4523 72.7989
4 -3.7021 10.3575 73.5791
1 -10.8437 10.1342 75.9903
2 -9.08722 7.04401 76.6576
5 -4.52026 7.35522 76.5541
1 -10.6221 4.41583 77.8292
2 -6.97432 3.02706 78.9949
6 -4.70661 6.21646 79.9672
1 -6.97184 0.332844 81.7552
2 -3.22474 1.32662 83.2934
4 -3.65014 5.8819 83.8381
1 -2.39808 -0.499322 86.2769
2 0.434874 2.14665 87.4939
6 -1.85268 5.62182 87.1932
1 2.17201 1.94241 90.3237
2 3.10202 5.61528 90.8149
6 -0.581545 7.4761 90.3936
1 4.96443 6.76056 94.2425
2 3.65754 10.1008 94.5632
6 -0.225806 9.46587 93.7133
1 3.77217 12.4475 98.2319
2 0.949164 14.6921 97.3826
3 -2.68266 11.2597 96.4197
1 0.428267 16.9842 99.3052
2 -3.47748 16.8657 99.1267
6 -4.07429 12.7626 99.0905
1 -5.54395 19.4134 102.024
2 -8.41133 17.0223 101.838
13 -7.24288 12.434 102.374
2 -10.6512 3.81534 101.162
10 -7.73431 6.66587 101.742
1 -14.3722 5.51787 99.4243
2 -12.4135 6.73884 96.252
5 -8.17252 9.06995 97.7827
1 -13.8773 8.24524 93.6289
2 -11.4219 11.5329 93.6499
4 -7.81912 9.63446 94.298
1 -11.6214 14.1063 90.1536
2 -8.50191 15.3518 90.1217
5 -4.84518 11.7483 91.8639
1 -7.19512 17.8028 87.6308
2 -3.8556 17.2012 88.0489
5 -2.82003 12.2618 88.8595
1 -1.47568 18.7298 85.2838
2 1.17952 15.704 85.4192
5 -0.989658 11.2581 85.6985
1 4.09841 15.6999 83.0498
2 4.62453 12.1692 83.2146
3 0.370744 9.68478 82.9832
1 7.15678 10.9159 80.8542
2 5.27895 7.35035 80.1177
5 0.415096 7.65758 79.5818
1 7.01702 4.81067 78.6513
2 3.99437 2.87187 77.4241
6 1.11407 6.25733 76.556
1 4.202 -0.236417 74.1348
2 0.555996 0.303569 72.9783
3 -0.625437 5.15553 73.1083
1 -0.400672 -0.847358 70.4062
2 -3.18763 1.4317 70.1411
4 -1.05725 5.72904 69.6063
1 -6.07674 0.679849 66.7209
2 -7.23945 4.17397 66.1557
3 -3.11675 7.38318 66.5168
1 -9.46102 4.78811 62.7136
2 -8.54222 7.84749 62.1898
5 -3.6924 8.2901 62.8377
1 -10.0637 9.89567 59.7464
2 -6.95896 12.0247 58.8672
3 -2.708 9.12722 59.5672
1 -6.78333 14.2243 55.5678
2 -3.18963 14.096 55.3282
3 -1.31174 9.25319 56.0411
1 -1.29384 15.8909 52.7204
2 1.63848 13.9529 52.6918
3 0.59001 9.30784 53.0899
1 3.39486 14.5394 50.6463
2 4.69446 10.9129 50.3001
6 1.53754 8.42202 49.9101
1 7.31991 10.0904 48.3465
2 6.57487 5.86588 48.2033
6 2.66376 5.962 47.2395
1 8.77454 3.46012 45.7438
2 5.8388 0.812292 44.6918
4 3.14892 3.85145 43.2748
1 7.08169 -1.97391 42.0203
2 3.53052 -2.60458 40.8977
6 2.00386 1.76891 40.3729
1 2.80298 -5.93386 37.9501
2 -0.652803 -4.06567 36.7364
5 -0.512455 1.39536 36.9809
1 -2.26186 -5.77147 34.6682
2 -4.19865 -2.65027 33.7374
6 -0.756536 0.492368 33.5081
1 -6.98403 -2.7111 30.4827
2 -6.29164 1.18982 29.5856
3 -1.89888 2.00161 29.9081
1 -7.639 2.57484 26.7787
2 -5.72934 5.35049 26.8912
6 -2.0744 3.82477 26.5771
1 -6.55738 8.18364 24.7031
2 -3.40012 9.21787 24.0964
6 -0.894171 5.8595 23.5952
1 -2.30203 12.3433 21.4417
2 1.38337 11.2245 20.5676
4 0.429044 6.71922 19.9302
1 3.41093 12.5933 17.9147
2 5.73916 9.47211 17.5562
4 2.59481 6.1977 16.8596
1 8.4268 9.59265 15.0661
2 8.8701 5.6717 14.5338
4 4.70657 4.62896 13.962
1 11.5361 4.25614 11.2117
2 9.54713 1.15489 10.2774
5 4.4059 1.81084 10.1915
1 10.5484 -1.89414 9.31137
2 6.94493 -3.80293 8.78244
4 4.23776 -0.221739 7.38282
1 7.01194 -7.18993 6.20155
2 3.2749 -6.86742 4.99189
3 1.86662 -2.0013 4.21231
1 2.02458 -9.04507 2.3043
2 -0.833581 -6.67628 1.33
12 1.67967 -3.16424 0.773405
190
Atoms. Timestep: 10000
2 -6.12289 7.40768 1.1878
7 -3.4384 3.72991 1.36588
1 -8.24876 7.49086 4.04802
2 -7.94227 3.44793 4.41318
4 -3.88991 3.11012 4.76732
1 -9.71747 1.47769 7.32837
2 -7.30152 -1.46318 7.25026
3 -2.42394 0.0255409 7.31901
1 -7.88278 -3.66736 9.66697
2 -4.28948 -5.25754 9.63627
6 -1.68481 -1.86527 10.5447
1 -3.32884 -9.34211 11.9045
2 0.462414 -8.43424 12.7097
3 0.763678 -3.30527 13.4446
1 2.514 -10.6723 15.2759
2 4.83454 -7.73228 16.317
3 2.13567 -3.53845 16.7614
1 7.31597 -8.00488 18.5384
2 7.48176 -4.25997 19.0184
3 2.67795 -2.37674 20.0721
1 9.89135 -3.33201 21.5952
2 8.32729 -0.360114 22.3059
5 3.23833 -0.511571 23.2683
1 9.8955 2.36179 24.5994
2 7.17965 3.96082 26.0735
5 3.19289 0.985466 26.7111
1 7.23615 6.39902 28.2454
2 3.7887 6.10975 28.9645
4 3.57113 1.89504 30.0933
1 2.5143 8.77848 32.3507
2 -0.0934302 6.62601 33.2177
5 0.709605 1.9422 33.2971
1 -3.46189 7.66391 33.7151
2 -4.72967 4.22407 34.5202
6 -1.20177 2.63283 35.9569
1 -8.76709 3.88045 36.6329
2 -7.25764 0.896891 38.931
5 -2.50109 1.28742 39.7519
1 -9.30948 -1.22254 41.2253
2 -6.81229 -2.39848 43.136
3 -3.03583 0.954445 43.3959
1 -8.0178 -3.60469 46.3091
2 -4.50356 -3.70825 47.6225
5 -1.89147 0.835404 47.249
1 -4.18517 -4.48011 50.6063
2 -1.23923 -3.03537 51.4492
5 -1.42909 1.89613 50.6614
1 0.150767 -3.51783 54.0338
2 2.46882 -0.249516 53.6457
4 -0.440399 2.64081 54.0309
1 5.49238 0.00839097 56.1038
2 5.42123 4.12064 56.4764
4 1.11556 4.74824 56.8917
1 7.50983 6.20966 59.1796
2 5.27952 9.35399 58.8701
4 1.85242 7.26913 59.9282
1 6.35314 11.9953 60.8831
2 3.26154 13.0858 62.0634
6 0.755914 9.72992 62.8312
1 2.54036 16.3006 64.9012
2 -1.56366 15.3957 65.4989
4 -1.16961 10.9384 66.3276
1 -4.85569 17.535 67.9455
2 -6.72692 14.5455 69.2114
3 -3.76905 10.145 69.7583
1 -9.42551 14.7099 71.792
2 -9.99115 11.4367 72.3942
4 -5.81229 10.4691 73.2979
1 -12.9724 10.7809 75.2154
2 -11.5747 7.7479 76.4899
5 -6.51228 7.71887 76.6294
1 -13.265 6.31163 78.4653
2 -10.2945 3.82642 79.3405
6 -7.16814 6.40808 79.6351
1 -10.5443 0.948939 82.6023
2 -6.83439 0.905445 83.681
4 -6.31368 5.46292 83.5247
1 -5.84988 -0.697558 86.6838
2 -2.90859 1.46108 87.185
6 -4.59518 5.45559 86.9828
1 -0.100726 0.916151 89.9688
2 0.638795 4.48645 90.5438
6 -3.46338 6.52013 90.628
1 3.03026 5.51403 92.8017
2 1.78619 9.47546 93.2314
6 -2.66306 8.9772 93.5182
1 3.38152 12.0398 95.8789
2 0.397428 14.1293 96.5914
3 -3.90973 11.5645 96.589
1 0.59167 16.2511 98.5296
2 -2.98491 17.1442 98.3142
6 -5.35074 13.4127 99.2161
1 -4.50769 21.2922 100.393
2 -8.1863 19.8264 100.77
13 -8.29892 15.0847 101.882
2 -13.8081 8.47328 103.853
10 -10.1902 10.4879 103.56
1 -15.7782 6.80749 100.001
2 -15.0114 9.70166 98.3308
5 -10.464 10.7252 98.7997
1 -15.8055 10.4575 95.5527
2 -13.4107 13.2861 94.9876
4 -9.63675 10.784 95.4345
1 -13.8577 14.6996 90.6547
2 -10.3083 15.6431 90.6044
5 -7.05302 11.8503 91.9803
1 -8.73055 17.8046 88.6078
2 -5.63591 16.1459 88.6103
5 -5.36654 11.5202 88.7005
1 -2.80363 17.682 86.3452
2 -0.868145 14.6461 85.8462
5 -3.1058 10.5712 85.9388
1 2.99121 14.372 84.4699
2 2.91449 10.871 83.4724
3 -1.96503 9.3072 82.9181
1 4.7459 9.79363 79.9671
2 3.0185 6.35361 79.6864
5 -1.8149 7.00009 79.6702
1 4.30944 3.97658 78.3024
2 1.3677 2.67223 77.5112
6 -1.26979 6.15231 76.5184
1 1.00577 -0.401432 74.9662
2 -2.51497 0.621893 73.6557
3 -2.8941 5.48761 72.7918
1 -3.77876 -1.02488 71.4359
2 -6.12455 1.47226 70.443
4 -3.34262 4.51667 69.1785
1 -8.45964 0.520783 67.3069
2 -9.22487 3.78825 65.8715
3 -4.74217 6.27861 65.7951
1 -10.753 3.84368 62.4886
2 -8.92284 7.4372 61.3224
5 -4.25681 7.48555 61.8682
1 -10.2251 9.67829 58.572
2 -7.55049 11.7437 58.0023
3 -3.88681 8.93067 58.6932
1 -7.56695 13.5341 54.78
2 -4.1141 13.6158 54.5601
3 -2.59142 9.21419 55.2807
1 -2.57612 15.1305 51.4545
2 0.2753 13.1769 51.3147
3 -0.818717 8.32231 52.2583
1 2.24884 13.7534 49.3759
2 3.7223 10.1925 49.2261
6 0.116323 7.0505 49.2461
1 5.99283 9.41859 46.8865
2 5.94026 5.68712 46.9829
6 1.79518 4.8347 46.3876
1 8.48081 3.33147 44.9062
2 6.70538 0.633132 44.7697
4 2.4873 2.5061 43.3612
1 8.35409 -2.11461 42.7193
2 5.10217 -3.43193 41.7137
6 2.68926 -0.0411801 40.2923
1 5.01862 -7.50381 38.9348
2 1.81046 -6.97081 38.064
5 1.06872 -2.35142 36.879
1 -0.134302 -9.1675 35.9969
2 -2.30374 -6.52656 34.7639
6 0.450984 -3.54057 33.7432
1 -4.85211 -7.58348 31.4602
2 -5.52621 -3.95329 30.8083
3 -0.620354 -1.91965 30.1737
1 -7.51015 -3.10445 28.7422
2 -5.66181 0.155131 28.1701
6 -1.82024 -1.22433 26.9286