190
Atoms. Timestep: 0
2 8.58965 -3.78079 36.7962
7 4.34621 -3.76733 38.8102
1 7.9484 -4.71664 33.1902
2 5.28903 -7.73628 34.2362
4 2.67934 -5.08126 36.2232
1 4.24383 -8.17737 30.6302
2 0.374616 -9.28173 31.6762
3 -1.37961 -5.41784 33.6902
1 -0.743226 -9.08826 28.0702
2 -4.59584 -7.92729 29.1162
6 -3.62993 -4.39552 30.8852
1 -5.43199 -7.16057 25.5102
2 -8.0468 -4.10226 26.5562
3 -5.26385 -0.898794 28.5702
1 -8.33622 -3.00534 22.9502
2 -8.88439 0.980883 23.9962
3 -4.81187 2.17318 26.0102
1 -8.53534 2.06031 20.3902
2 -6.84311 5.71091 21.4362
3 -2.77191 4.51409 23.4502
1 -5.96623 6.43069 17.8302
2 -2.57 8.58849 18.8762
5 0.540204 5.49677 20.9532
1 -1.44324 8.72047 15.2702
2 2.58045 8.7015 16.3162
5 3.52745 4.41953 18.3932
1 3.59993 8.20384 12.7102
2 6.97567 6.01412 13.7562
4 4.73036 3.04457 15.7432
1 7.56471 5.04457 10.1502
2 9.22246 1.37819 11.1962
5 5.72335 -1.26536 13.2732
1 9.19435 0.244075 7.59018
2 8.60863 -3.7368 8.63618
6 4.97366 -3.29719 10.4052
1 7.97229 -4.67599 5.03018
2 5.32877 -7.70952 6.07618
5 1.46855 -5.62846 8.15318
1 4.2859 -8.15607 2.47018
2 0.422515 -9.28068 3.51618
3 -1.35192 -5.42602 5.53018
1 -0.696325 -9.09306 -0.089817
2 -4.55496 -7.95228 0.956183
5 -4.26973 -3.57612 3.03318
1 -5.39512 -7.18995 -2.64982
2 -8.0259 -4.14538 -1.60382
5 -5.4217 -0.616888 0.473183
1 -8.32107 -3.04999 -5.20982
2 -8.8901 0.933313 -4.16382
4 -5.17634 1.19344 -2.17682
1 -8.5467 2.01456 -7.76982
2 -6.87361 5.67396 -6.72382
4 -3.60792 3.88654 -4.73682
1 -6.00051 6.39832 -10.3298
2 -2.61563 8.57388 -9.28382
4 -0.833147 5.30548 -7.29682
1 -1.48958 8.71175 -12.8898
2 2.53416 8.71386 -11.8438
6 2.63027 5.05366 -10.0748
1 3.55623 8.22154 -15.4498
2 6.94339 6.04953 -14.4038
4 4.71366 3.06826 -12.4168
1 7.5375 5.08307 -18.0098
2 9.21442 1.42542 -16.9638
3 5.66032 -0.893074 -14.9498
1 9.19225 0.291175 -20.5698
2 8.62739 -3.69272 -19.5238
4 4.98852 -2.90641 -17.5368
1 7.99597 -4.63522 -23.1298
2 5.36837 -7.68255 -22.0838
5 1.49731 -5.62173 -20.0068
1 4.32785 -8.13456 -25.6898
2 0.470408 -9.27938 -24.6438
6 -0.661301 -5.79721 -22.8748
1 -0.649399 -9.09762 -28.2498
2 -4.51396 -7.97706 -27.2038
4 -3.22277 -4.48528 -25.2168
1 -5.35809 -7.21914 -30.8098
2 -8.00478 -4.18838 -29.7638
6 -5.30977 -1.70983 -27.9948
1 -8.30568 -3.09455 -33.3698
2 -8.89556 0.885715 -32.3238
6 -5.28866 1.51549 -30.5548
1 -8.55783 1.96874 -35.9298
2 -6.90392 5.63685 -34.8838
6 -3.52845 4.21823 -33.1148
1 -6.03463 6.36578 -38.4898
2 -2.66118 8.55903 -37.4438
3 0.151633 5.38175 -35.4298
1 -1.53587 8.7028 -41.0498
2 2.4878 8.72597 -40.0038
6 2.60308 5.06632 -38.2348
1 3.51244 8.23901 -43.6098
2 6.91092 6.08476 -42.5638
13 5.43771 1.95417 -40.4868
2 6.91092 -6.35106 -36.7858
10 5.03084 -3.20915 -38.5548
1 7.51009 -5.38773 -33.1798
2 9.20613 -1.73891 -34.2258
5 5.7349 0.941142 -36.3028
1 9.18991 -0.60456 -30.6198
2 8.64591 3.38224 -31.6658
4 5.00297 2.61499 -33.6528
1 8.01944 4.32803 -28.0598
2 5.40783 7.38908 -29.1058
5 1.52602 5.34856 -31.1828
1 4.36969 7.84653 -25.4998
2 0.518294 9.01153 -26.5458
5 -1.64592 5.19731 -28.6228
1 -0.60245 8.83564 -22.9398
2 -4.47282 7.73532 -23.9858
5 -4.23343 3.35642 -26.0628
1 -5.32091 6.98184 -20.3798
2 -7.98344 3.96498 -21.4258
3 -5.25115 0.718193 -23.4398
1 -8.29005 2.87274 -17.8198
2 -8.90077 -1.10438 -18.8658
5 -4.81965 -2.70957 -20.9428
1 -8.56871 -2.18916 -15.2598
2 -6.93404 -5.86589 -16.3058
6 -3.55118 -4.46495 -18.0748
1 -6.06857 -6.59935 -12.6998
2 -2.70666 -8.81023 -13.7458
3 0.122758 -5.64773 -15.7598
1 -1.58211 -8.95989 -10.1398
2 2.44139 -9.00413 -11.1858
4 2.21455 -5.28819 -13.1728
1 3.46856 -8.52255 -7.57982
2 6.87827 -6.38612 -8.62582
3 5.18064 -2.49703 -10.6398
1 7.48247 -5.42594 -5.01982
2 9.1976 -1.78605 -6.06582
5 5.74045 0.912136 -8.14282
1 9.18732 -0.651636 -2.45982
2 8.6642 3.33795 -3.50582
3 4.42141 3.41336 -5.51982
1 8.04269 4.28702 0.100183
2 5.44714 7.36169 -0.945817
3 1.83605 5.13302 -2.95982
1 4.41141 7.82458 2.66018
2 0.56617 9.00973 1.61418
3 -1.26859 5.18342 -0.399817
1 -0.555478 8.83971 5.22018
2 -4.43156 7.75967 4.17418
6 -3.53983 4.20846 2.40518
1 -5.28358 7.01064 7.78018
2 -7.96187 4.00776 6.73418
6 -5.29296 1.50112 4.96518
1 -8.2742 2.91714 10.3402
2 -8.90573 -1.05673 9.29418
4 -5.19652 -1.37516 7.30718
1 -8.57936 -2.14323 12.9002
2 -6.96396 -5.82846 11.8542
6 -3.57381 -4.44526 10.0852
1 -6.10234 -6.56645 15.4602
2 -2.75205 -8.79491 14.4142
5 0.422224 -5.769 12.3372
1 -1.6283 -8.95045 18.0202
2 2.39491 -9.01576 16.9742
6 2.5485 -5.35752 15.2052
1 3.42458 -8.53956 20.5802
2 6.84544 -6.42101 19.5342
3 5.16819 -2.52308 17.5202
1 7.45466 -5.46401 23.1402
2 9.18882 -1.83315 22.0942
6 5.92656 -0.170643 20.3252
1 9.18448 -0.698697 25.7002
2 8.68226 3.29358 24.6542
6 5.03887 2.93019 22.8852
1 8.06573 4.24588 28.2602
2 5.48632 7.33411 27.2142
4 2.80801 4.74831 25.2272
1 4.45302 7.80241 30.8202
2 0.614037 9.00768 29.7742
4 -0.24283 5.38477 27.7872
1 -0.508486 8.84353 33.3802
2 -4.39017 7.7838 32.3342
4 -3.15399 4.27218 30.3472
1 -5.24611 7.03924 35.9402
2 -7.94008 4.05043 34.8942
5 -5.41033 0.468173 32.8172
1 -8.25811 2.96146 38.5002
2 -8.91044 -1.00905 37.4542
4 -5.20294 -1.3469 35.4672
1 -8.58976 -2.09725 41.0602
2 -6.99368 -5.79089 40.0142
3 -2.89255 -4.70106 38.0002
1 -6.13594 -6.53338 43.6202
2 -2.79736 -8.77934 42.5742
12 -0.946819 -5.54899 40.5872
190
Atoms. Timestep: 2000
2 6.15739 -5.99627 38.1117
7 1.62317 -6.65834 39.1909
1 6.30754 -6.99083 33.987
2 2.88291 -9.47641 34.2162
4 0.200757 -6.94234 36.0136
1 2.54273 -9.15354 30.8144
2 -1.4888 -10.7348 30.615
3 -3.61522 -7.51019 33.1325
1 -1.86191 -10.013 27.36
2 -5.70612 -8.921 27.6778
6 -5.2396 -5.64769 30.5291
1 -5.71268 -7.06373 24.3735
2 -8.29624 -4.27489 25.3258
3 -5.91198 -1.76892 28.4693
1 -7.93968 -2.56041 22.0149
2 -8.88749 0.984386 23.4137
3 -5.29899 1.85293 26.605
1 -8.01986 2.70992 20.5425
2 -6.93451 5.83086 22.4591
3 -2.98787 4.49849 24.472
1 -5.39149 7.16229 19.2216
2 -2.29689 9.10133 21.1174
5 0.774692 5.89263 22.9481
1 -1.0564 10.0224 17.7385
2 3.01328 10.4422 19.3488
5 3.85 6.00404 20.15
1 4.38083 11.2797 16.0729
2 7.68692 8.21085 16.8113
4 5.06331 4.83553 17.4028
1 8.5021 8.1501 12.6548
2 10.0697 3.91429 12.7788
5 6.58497 1.16866 14.0883
1 10.1401 3.2593 8.74879
2 9.95735 -0.551171 9.48928
6 6.32253 -0.67736 10.8072
1 9.45334 -1.15099 6.09212
2 6.85317 -4.50709 6.58724
5 2.98348 -2.46278 7.90484
1 5.9999 -5.0791 2.79311
2 2.54531 -5.97247 3.59768
3 0.377914 -2.04692 5.16573
1 1.25508 -6.22009 -0.373973
2 -2.9917 -5.48533 1.20962
5 -3.18229 -1.02424 2.71349
1 -4.42681 -5.53266 -2.00205
2 -6.55477 -2.42334 -1.79682
5 -4.02733 1.28277 -0.528934
1 -6.44528 -2.22764 -5.50549
2 -6.74568 1.88997 -4.99755
4 -2.78774 2.3341 -3.22283
1 -6.89143 2.19504 -8.50405
2 -5.10695 6.40596 -8.25631
4 -1.77574 4.6837 -6.33974
1 -4.46758 6.94522 -12.3213
2 -1.02847 9.31287 -11.3392
4 0.701476 6.29529 -9.27981
1 0.58034 9.40009 -14.9814
2 4.42177 9.76219 -13.5226
6 4.5729 5.88792 -11.3467
1 6.16634 9.45806 -16.6899
2 9.1059 7.01656 -14.7096
4 6.66303 4.02969 -13.638
1 10.2982 5.72815 -18.2195
2 11.7064 2.01032 -16.9271
3 7.69945 -0.21486 -15.3576
1 11.5476 0.635289 -20.5309
2 10.1848 -3.59699 -19.6587
4 6.92432 -1.97352 -17.9541
1 8.94763 -4.11957 -23.4617
2 6.36396 -6.90956 -22.1361
5 2.82133 -4.08207 -19.9526
1 5.20306 -7.53156 -25.8577
2 1.28875 -8.4549 -24.8002
6 0.543263 -4.5877 -22.6671
1 0.542576 -7.68451 -27.9253
2 -3.44237 -6.84976 -26.591
4 -1.93777 -2.90641 -24.9277
1 -5.15126 -6.11108 -29.9925
2 -7.61678 -2.57468 -28.7513
6 -4.8284 -0.313266 -27.2728
1 -8.40996 -1.98164 -32.5374
2 -8.45213 1.87892 -32.0315
6 -4.6353 2.20173 -30.7806
1 -8.47978 2.14834 -35.8036
2 -6.24166 5.81457 -35.7246
6 -2.93413 4.22898 -33.7656
1 -5.48593 5.82036 -39.4636
2 -1.99715 7.49991 -38.7363
3 0.382585 4.48377 -36.7202
1 -0.839161 8.07145 -42.4643
2 3.17266 7.83516 -41.1575
6 3.06964 4.19871 -39.5282
1 4.6932 7.57587 -45.1168
2 8.23388 5.36084 -43.5354
13 6.32504 1.0231 -41.5811
2 7.55814 -7.16736 -37.6427
10 5.55846 -4.10934 -39.8023
1 8.56349 -6.27067 -34.3356
2 10.3129 -2.685 -35.2079
5 6.38535 0.136691 -37.5663
1 10.1975 -1.01534 -31.7214
2 9.33188 2.61548 -33.3103
4 5.52047 1.77813 -34.9942
1 9.29375 4.02616 -30.1416
2 6.87171 6.76754 -31.292
5 2.4859 4.64836 -32.3502
1 6.59349 7.83488 -27.3366
2 2.43702 8.88691 -27.9957
5 -0.0453075 5.13149 -29.0928
1 1.84372 9.60684 -24.86
2 -2.19138 8.72143 -25.066
5 -2.69245 4.40925 -26.2334
1 -2.51101 8.58382 -20.7739
2 -5.77945 6.11544 -21.0501
3 -3.52008 2.38908 -23.1559
1 -5.80775 5.29758 -17.519
2 -7.09952 0.977511 -18.5734
5 -3.3082 -1.20505 -20.8458
1 -7.10744 0.211953 -14.8336
2 -5.60865 -3.46501 -15.5924
6 -2.03232 -2.23136 -17.7813
1 -4.63344 -4.49566 -12.0458
2 -1.40638 -6.88795 -13.3327
3 1.63654 -3.81824 -15.6213
1 0.0658558 -6.62275 -10.0153
2 3.89791 -7.51611 -10.8674
4 4.08077 -4.41847 -13.54
1 4.91712 -6.66548 -7.58581
2 8.52281 -5.05443 -8.91809
3 7.0605 -1.25654 -11.5622
1 9.41885 -3.78116 -5.25069
2 11.1836 -0.323158 -6.80983
5 7.76064 2.02611 -9.12465
1 11.0424 1.06533 -3.55296
2 10.0445 4.61797 -4.6744
3 5.62722 4.35757 -6.68138
1 9.65977 5.58815 -1.15776
2 6.77803 8.87064 -1.86429
3 3.31774 6.17026 -3.81298
1 5.87591 8.92867 1.86208
2 2.20564 10.1229 1.05969
3 0.49899 6.70707 -0.966191
1 0.815256 10.2145 4.98269
2 -2.868 10.0268 3.57659
6 -2.82183 6.4874 0.965965
1 -3.97612 9.1999 7.43603
2 -6.7031 6.70619 6.08633
6 -4.33899 4.25027 4.10075
1 -7.22233 5.31167 9.54862
2 -7.43029 1.57344 8.24542
4 -4.05105 1.57454 6.59006
1 -7.56177 -0.0605287 11.9138
2 -6.04527 -3.02535 10.3466
6 -2.56484 -1.83347 8.99684
1 -5.42944 -4.85225 13.6146
2 -1.88042 -6.50015 12.2035
5 1.44959 -3.07962 11.4223
1 -1.1002 -7.73399 15.4838
2 3.31064 -7.35378 15.3226
6 3.62601 -3.34768 14.466
1 3.74935 -7.79856 19.208
2 7.11939 -5.25134 19.1242
3 5.48014 -1.11093 17.909
1 7.24423 -5.08397 22.7177
2 9.37436 -1.0593 22.8523
6 5.90784 0.974755 21.1967
1 9.06923 -0.662037 26.9031
2 8.42572 3.28184 26.6957
6 5.21399 3.13184 24.9277
1 7.49546 3.1698 30.3824
2 4.59371 6.7354 29.9832
4 2.18673 3.9594 27.1287
1 3.26544 5.98139 33.2336
2 -0.841886 7.45582 32.573
4 -1.14193 4.1297 29.9125
1 -2.39864 6.50633 36.5101
2 -5.89595 6.33398 34.9148
4 -4.35056 3.06061 32.1694
1 -7.25846 4.73878 38.2506
2 -9.77376 2.37773 35.9904
5 -7.16645 -0.989537 32.9406
1 -10.3193 0.494337 39.3306
2 -11.3437 -3.1069 37.513
4 -7.54858 -3.35268 35.1698
1 -10.9536 -4.9033 41.3436
2 -9.10886 -8.35985 40.3278
3 -5.26918 -6.68936 38.0744
1 -7.57825 -8.52343 43.9938
2 -5.09198 -11.3247 42.9184
12 -3.66969 -8.36254 40.5982
190
Atoms. Timestep: 4000
2 1.88714 -5.31639 39.9585
7 -2.56875 -5.73861 40.0705
1 2.84098 -4.84186 36.1428
2 0.204485 -8.01602 35.479
4 -2.9642 -5.77164 36.7631
1 0.315049 -7.21388 31.9018
2 -3.23965 -8.53559 31.2405
3 -5.9434 -5.32764 32.8124
1 -3.0128 -7.5371 27.656
2 -7.11275 -6.20549 27.2484
6 -6.80432 -3.36589 29.8032
1 -6.82131 -4.864 23.7319
2 -9.44288 -2.01715 24.6252
3 -7.95932 0.809214 28.452
1 -8.75177 0.0454903 21.9717
2 -9.90147 3.175 23.9793
3 -6.38338 3.8816 26.5849
1 -9.3076 4.9596 20.8562
2 -8.2855 8.72882 22.8463
3 -5.08786 7.40848 25.6031
1 -6.73006 9.90017 19.5084
2 -4.07027 11.9374 21.4217
5 -1.06246 8.58429 24.2307
1 -2.02477 12.3192 18.0736
2 1.40899 12.5711 20.4028
5 2.33089 8.17675 22.0143
1 3.86615 12.2791 17.1866
2 6.87642 10.34 19.5256
4 4.68241 6.9284 20.0234
1 8.78438 9.86352 15.9994
2 10.1334 6.15275 16.4741
5 6.0784 3.00866 16.8137
1 10.9572 5.8905 12.509
2 10.3322 1.67492 13.0087
6 6.17778 1.59702 13.5901
1 10.7998 0.529385 8.99421
2 7.95503 -2.61491 9.51803
5 3.60964 -0.849208 9.84417
1 7.90566 -2.97788 5.73251
2 4.20297 -4.32711 5.69419
3 1.69634 -0.748647 6.58283
1 3.80259 -4.51281 1.89171
2 -0.546145 -3.34923 1.97778
5 -1.15673 0.791787 3.89216
1 -0.699165 -2.921 -1.5995
2 -4.61969 -0.739652 -1.33343
5 -3.1413 2.83602 0.819555
1 -4.67425 0.248567 -5.27249
2 -7.38502 3.28119 -4.55061
4 -4.00518 4.74279 -1.7969
1 -6.73088 4.08714 -8.36067
2 -7.10441 7.95713 -7.49747
4 -3.41047 7.4899 -4.71164
1 -6.25787 8.45887 -11.2632
2 -3.39113 11.48 -10.7856
4 -1.08182 8.87203 -7.84274
1 -1.74413 10.8786 -14.5756
2 2.07487 11.5052 -12.5071
6 2.19535 7.8989 -10.6484
1 3.71289 10.7249 -16.0392
2 7.29951 9.14831 -14.2366
4 5.46734 6.30671 -11.8247
1 8.15553 7.94352 -17.8332
2 10.0021 4.93883 -16.295
3 6.93526 2.06126 -14.1597
1 9.84303 3.402 -20.117
2 9.74264 -0.574159 -18.8334
4 6.12596 0.150161 -16.9751
1 9.59885 -2.03538 -21.9916
2 7.63689 -5.44813 -20.2938
5 3.14785 -3.65478 -18.5852
1 6.47134 -6.87195 -23.8586
2 3.35101 -8.43927 -22.7262
6 1.65661 -5.42743 -21.5798
1 2.29931 -9.23346 -26.5548
2 -1.55922 -8.14912 -25.8459
4 -0.610609 -4.42789 -24.713
1 -2.21834 -7.93767 -29.7385
2 -5.00272 -5.10556 -29.4928
6 -2.5644 -1.7847 -27.8294
1 -5.05517 -4.22981 -33.5084
2 -6.51026 -0.48498 -32.9432
6 -2.94219 1.08404 -30.6487
1 -5.73724 0.247487 -36.9287
2 -4.51844 4.46616 -35.8101
6 -1.56676 3.63994 -33.4868
1 -3.48134 5.48187 -39.6753
2 -0.664729 8.05281 -38.4929
3 2.14635 5.42656 -35.6468
1 0.841096 7.92268 -42.0553
2 4.25944 8.49076 -40.3581
6 4.74075 5.20511 -38.426
1 5.60953 8.32966 -43.3873
2 9.55372 7.72167 -41.7294
13 8.99542 3.1663 -39.7554
2 10.9845 -5.21728 -35.2401
10 9.23294 -2.21974 -37.5238
1 11.8137 -3.38408 -32.2544
2 12.426 0.469643 -33.8897
5 8.81295 2.36548 -35.8892
1 12.6665 2.23457 -30.5126
2 10.4832 5.54201 -31.8869
4 7.40274 3.6991 -33.1892
1 9.73858 6.85859 -28.4784
2 6.38388 8.85739 -29.6346
5 3.25405 5.91151 -31.2627
1 5.59715 9.76781 -26.2726
2 1.73829 9.67589 -26.6252
5 0.152052 5.45354 -28.6694
1 1.00189 9.65477 -23.0444
2 -2.69014 7.71822 -24.1622
5 -1.8221 3.42466 -25.813
1 -3.92817 7.22406 -20.2068
2 -6.22534 4.02492 -21.1121
3 -3.34048 0.876368 -23.0293
1 -6.71596 3.03063 -17.7118
2 -7.31234 -0.788301 -18.5099
5 -2.99985 -2.43729 -20.5621
1 -7.10301 -1.27282 -14.7145
2 -5.18395 -4.6424 -15.4412
6 -1.90412 -2.92317 -17.1168
1 -4.58868 -5.16718 -12.135
2 -0.401437 -6.39485 -12.4589
3 1.77743 -3.26455 -14.84
1 -0.13448 -5.41889 -9.26392
2 3.74153 -5.65383 -9.35162
4 4.12012 -2.63805 -12.3185
1 4.38096 -4.29876 -5.99172
2 7.61932 -2.10481 -6.96461
3 5.98393 0.971205 -9.63027
1 8.04949 -0.39881 -3.29622
2 9.62152 2.75873 -4.97998
5 5.8106 4.85026 -7.72829
1 9.79575 4.79362 -2.06017
2 9.0559 8.09827 -3.74487
3 4.45923 7.96609 -5.92859
1 8.12311 9.48396 -0.197553
2 5.4804 12.1828 -1.60757
3 1.85355 9.61121 -2.85329
1 4.56553 13.4568 2.09411
2 0.155116 13.9551 1.48703
3 -0.971655 10.0187 -0.139724
1 -0.389197 13.5159 5.09704
2 -4.18877 11.7892 4.7807
6 -2.77229 8.19109 2.55167
1 -4.54654 10.9396 8.11942
2 -6.78774 7.56216 6.82787
6 -3.48638 5.48605 5.7103
1 -7.36894 6.10943 10.5827
2 -7.44019 2.16991 9.70059
4 -3.50792 2.42863 7.76704
1 -6.77019 1.26053 13.5648
2 -5.1615 -2.02906 12.5402
6 -1.73505 -0.409483 10.7626
1 -4.76563 -3.03785 16.0271
2 -1.53732 -5.12871 14.9844
5 1.48619 -1.54914 14.0244
1 -1.08405 -6.07434 18.4204
2 2.99775 -5.31035 18.3895
6 3.11456 -1.39958 17.3114
1 3.21026 -5.60249 22.5527
2 6.43811 -3.00277 22.8624
3 5.19263 1.14334 20.7196
1 5.8021 -2.41825 26.3504
2 7.39346 1.61999 26.5207
6 4.22546 3.33295 23.9527
1 6.12076 2.07457 29.9644
2 5.78129 5.6704 29.0516
6 2.71646 5.65961 27.0805
1 4.28187 6.6737 32.6968
2 1.97052 9.53907 31.5558
4 -0.170888 7.10625 29.0227
1 0.590457 9.11516 35.1481
2 -3.60479 9.57665 33.725
4 -3.32441 6.25717 31.1747
1 -5.4791 8.51694 37.2986
2 -8.94371 8.16601 35.019
4 -6.9843 5.28833 32.2373
1 -10.5915 6.38423 37.6085
2 -12.5407 3.65385 34.6272
5 -9.48759 0.738943 32.3063
1 -14.2814 1.40639 37.5441
2 -14.3928 -1.89262 35.4947
4 -10.4771 -1.93735 34.4529
1 -15.0906 -3.80152 38.8108
2 -13.4479 -7.42313 37.1774
3 -8.85762 -5.97461 36.2769
1 -13.5396 -8.93687 40.6299
2 -10.0714 -10.8526 39.7054
12 -8.20209 -7.323 39.4836
190
Atoms. Timestep: 6000
2 0.950663 -5.94409 40.2672
7 -3.9276 -5.75326 40.1149
1 1.75427 -5.59851 36.9501
2 -1.08785 -8.27031 35.7254
4 -4.24546 -5.31847 36.9197
1 -0.225263 -7.17191 31.711
2 -4.39968 -8.04555 31.2231
3 -6.32977 -4.51298 32.7571
1 -4.45033 -7.70652 27.1562
2 -8.41786 -5.61448 27.4966
6 -7.37687 -2.2436 30.0498
1 -7.75462 -4.60114 24.1854
2 -9.79382 -0.721551 25.1691
3 -6.87611 1.89368 28.4728
1 -8.54277 0.536937 22.1605
2 -9.0776 4.31191 23.3318
3 -5.30192 5.02108 26.3537
1 -7.85724 5.46274 20.3577
2 -6.76936 9.21493 22.4282
3 -3.07639 8.23053 25.0695
1 -5.14759 10.9675 19.5149
2 -2.47469 13.2555 22.1488
5 0.611402 9.7625 24.1337
1 -1.25463 14.9792 18.9713
2 2.96531 14.5993 20.4568
5 3.59635 9.90168 21.5431
1 4.28562 14.7161 16.978
2 7.7465 12.1189 17.8527
4 5.48796 8.92269 19.1375
1 8.23341 11.5301 14.1694
2 10.3615 7.89529 14.9029
5 7.17912 5.06914 15.8235
1 10.5433 7.16473 10.8327
2 10.1112 3.39124 10.8954
6 6.53923 3.09154 12.787
1 9.36299 3.28125 6.94021
2 7.02147 0.380328 7.77518
5 2.58765 1.87687 10.071
1 6.41992 -0.605292 4.49669
2 2.42036 -2.51812 5.7181
3 -0.400235 0.708439 7.87732
1 1.03009 -2.64997 1.97611
2 -2.88685 -2.32661 3.12104
5 -3.46262 1.8908 4.79469
1 -4.30448 -2.11848 -0.77204
2 -7.01676 0.51927 0.144747
5 -4.70601 4.40293 1.84899
1 -8.35442 1.45556 -3.67874
2 -8.57344 5.2098 -3.03287
4 -4.42344 5.94943 -0.930464
1 -8.55164 5.6024 -6.52271
2 -7.21015 9.14178 -6.43109
4 -4.01365 8.2732 -4.11546
1 -6.97621 8.70679 -9.81183
2 -3.81155 10.8347 -10.0189
4 -1.62115 8.04745 -7.37992
1 -3.01653 9.79954 -13.7039
2 0.996884 10.8087 -12.6504
6 1.89371 7.79933 -10.0641
1 2.44395 9.80972 -16.3252
2 5.63955 8.96743 -14.6842
4 4.28496 6.14393 -12.7144
1 6.91316 7.47162 -18.112
2 8.93403 4.25945 -16.5777
3 5.83992 1.82663 -14.4135
1 9.32008 2.42565 -20.0815
2 9.46831 -1.33325 -18.2635
4 5.68314 -0.966882 -16.3067
1 9.14396 -3.07057 -21.193
2 7.35298 -6.29908 -19.1356
5 2.76727 -4.64613 -18.0525
1 6.66628 -7.72658 -22.4105
2 2.72726 -9.70256 -21.7972
6 0.846481 -5.93175 -21.0083
1 2.38449 -10.7062 -25.2267
2 -2.15944 -9.52588 -25.3782
4 -1.67386 -5.44428 -23.53
1 -1.69191 -9.07892 -29.2346
2 -4.7273 -6.31932 -29.3108
6 -2.95827 -3.11542 -27.1593
1 -4.31735 -5.83208 -32.9006
2 -4.95557 -2.10057 -32.4297
6 -1.50588 -0.855336 -30.2844
1 -3.73002 -1.99412 -36.0231
2 -2.90464 1.97274 -35.6294
6 0.0169717 1.35862 -33.294
1 -1.79595 2.92026 -38.99
2 0.580956 6.03536 -37.0558
3 3.79046 3.36343 -34.4014
1 2.28845 6.99645 -40.738
2 5.5358 8.20623 -38.1595
6 6.74037 4.32921 -36.4423
1 7.68526 8.76616 -41.4209
2 11.0921 7.92683 -39.431
13 10.7623 3.08463 -38.5766
2 14.0724 -5.29191 -35.1959
10 12.3363 -2.08303 -37.6216
1 13.2534 -4.29077 -31.3085
2 14.2229 -0.542345 -31.6467
5 11.0244 1.32102 -34.5729
1 12.6814 0.00949858 -27.9919
2 11.828 3.41305 -29.2203
4 8.93862 1.72514 -31.9753
1 9.85815 4.19573 -26.0453
2 7.53837 6.73876 -28.1422
5 4.18174 3.66483 -30.4728
1 5.93016 7.43418 -24.7776
2 1.81933 7.66663 -26.848
5 0.618032 3.60952 -28.1404
1 0.220482 8.51278 -23.6153
2 -3.57117 6.94749 -24.8313
5 -2.69802 2.28611 -25.9021
1 -4.39441 6.89046 -21.3374
2 -7.24113 3.11812 -21.8112
3 -4.08945 -0.163101 -23.1979
1 -7.71194 2.67344 -17.9553
2 -8.20456 -1.8288 -18.4588
5 -3.8218 -3.15062 -20.1568
1 -7.46221 -2.34553 -14.3847
2 -5.6046 -5.65358 -15.0036
6 -2.58547 -4.24783 -17.0406
1 -4.31066 -5.8433 -11.002
2 -0.831858 -7.17755 -11.6957
3 1.11185 -3.79929 -13.9778
1 0.253736 -6.17687 -7.63668
2 4.16728 -5.47676 -8.16804
4 3.34493 -2.92035 -11.7543
1 4.88444 -3.41583 -4.84789
2 8.25389 -1.24018 -6.69156
3 6.26067 1.52917 -9.19686
1 8.97208 0.463271 -2.92207
2 9.58423 4.47649 -4.62221
5 5.83489 5.35842 -7.19219
1 9.06887 6.44497 -1.08564
2 7.94558 9.44438 -3.29095
3 4.01754 7.86415 -4.95034
1 7.5984 11.7472 -0.0935448
2 4.05994 13.7388 -1.17771
3 1.0868 10.384 -2.17974
1 3.40258 14.9076 2.59939
2 -0.880819 15.2281 2.00153
3 -1.65259 10.9493 0.737397
1 -1.61122 15.4076 5.82333
2 -5.25446 13.6793 5.18922
6 -3.86973 9.72601 3.4099
1 -5.798 12.7981 9.16766
2 -8.23523 9.49947 8.23979
6 -4.99822 7.35495 6.46704
1 -7.86966 8.14272 12.1254
2 -8.52857 4.47372 11.4459
4 -4.98626 4.33874 8.93001
1 -7.98925 3.70239 14.7469
2 -5.95202 0.191198 13.9607
6 -2.65832 2.17777 12.1179
1 -5.27839 -0.268315 17.1913
2 -1.6917 -2.53134 15.8357
5 1.51288 0.761396 14.3284
1 -0.805368 -3.03366 19.1158
2 3.29885 -3.47679 18.4834
6 4.13073 0.482661 16.9614
1 4.13184 -3.30352 22.1072
2 7.70418 -1.03429 21.2529
3 6.44199 2.98669 19.8187
1 8.21862 -0.579611 24.6521
2 9.63111 3.4685 24.8213
6 6.34772 5.14079 23.1051
1 8.84802 3.83881 28.746
2 8.40872 7.64966 28.6998
6 4.91456 7.31657 26.3701
1 6.97747 7.59251 32.5831
2 4.05385 10.301 32.1051
4 1.70153 8.20685 28.7325
1 2.84075 9.28577 35.4094
2 -1.36063 10.1621 34.3481
4 -1.3783 7.34639 31.3075
1 -2.87719 8.86921 37.6696
2 -6.37676 9.05535 35.9354
4 -5.15262 6.54498 32.2291
1 -8.24606 7.17536 38.4042
2 -11.2227 5.75725 35.7331
5 -8.59069 2.38191 32.5535
1 -12.6083 3.45837 38.1877
2 -13.7449 1.14269 35.0431
4 -10.2247 -0.014139 33.7406
1 -15.6105 -1.83248 37.5346
2 -14.2691 -4.85088 35.5234
3 -9.79353 -4.33271 35.7843
1 -14.893 -7.50491 38.6247
2 -11.8977 -9.91291 37.5304
12 -9.50408 -6.43417 38.3014
190
Atoms. Timestep: 8000
2 2.4698 -9.33545 36.4964
7 -2.14826 -8.70873 38.0686
1 2.0129 -9.75225 33.0877
2 -2.36278 -11.1136 33.2292
4 -3.39884 -7.42176 35.3483
1 -2.71707 -10.3344 29.5613
2 -7.17694 -9.079 30.4725
3 -6.88986 -5.01419 32.9542
1 -7.06509 -7.47078 26.6062
2 -9.72251 -4.12113 27.4236
6 -7.41668 -2.15182 30.3384
1 -9.02738 -2.09013 24.2342
2 -10.2097 1.36497 26.0942
3 -6.44127 2.30604 29.0873
1 -9.59595 3.60839 22.8059
2 -9.0463 6.90686 25.049
3 -4.98605 5.72718 27.6737
1 -7.68434 8.42156 22.1399
2 -4.86966 10.5502 24.5253
3 -1.70762 7.7161 25.9047
1 -3.3196 12.0108 21.2972
2 0.0373346 12.5675 22.9782
5 2.18819 8.44926 24.4438
1 1.86052 13.2249 19.4871
2 5.36444 12.4011 21.1281
5 5.4698 7.83631 21.9327
1 6.8815 12.3394 17.2497
2 9.72771 9.32673 18.0652
4 6.77164 6.76544 19.3113
1 10.5496 9.05684 14.8072
2 11.2681 5.32738 15.268
5 7.10396 2.97274 15.9872
1 11.7015 5.21157 11.7475
2 10.3257 0.847753 11.4014
6 6.43743 1.72488 12.7207
1 10.2407 1.40308 7.4322
2 7.59801 -1.33165 7.72215
5 3.21641 0.7383 9.5158
1 7.07504 -1.44374 4.07255
2 2.79887 -2.8042 4.65947
3 0.324745 0.644466 6.30775
1 2.00434 -2.96726 1.13468
2 -2.45156 -2.06529 1.87809
5 -2.7509 2.46072 3.80478
1 -3.09886 -1.80864 -2.31134
2 -6.15637 0.964993 -1.40182
5 -3.97959 5.04657 1.00426
1 -6.42469 1.64286 -4.76997
2 -7.49486 5.61308 -4.12945
4 -4.08873 6.77446 -1.66
1 -7.00094 5.80426 -8.11034
2 -5.94702 9.68554 -7.85998
4 -2.89011 8.32365 -5.21507
1 -5.09595 9.65715 -11.5339
2 -2.05776 12.704 -10.9647
4 -0.316984 10.0553 -8.06244
1 -1.06409 12.2479 -14.1241
2 3.28598 12.1244 -12.817
6 3.22454 8.53322 -10.6141
1 4.01949 10.8642 -16.3423
2 8.05107 9.45536 -14.9136
4 6.08108 6.69238 -11.9535
1 8.59711 7.48534 -18.3004
2 10.9667 4.59543 -15.7392
3 7.12876 2.17444 -13.8051
1 11.2938 2.69174 -19.0975
2 10.6105 -0.947613 -17.436
4 6.65634 0.0615324 -16.2259
1 10.7025 -3.03576 -20.6101
2 7.28323 -5.54962 -19.4514
5 3.69164 -3.0985 -18.8123
1 6.32446 -7.50164 -23.2095
2 2.19348 -7.3258 -21.9852
6 1.41804 -3.14858 -21.7461
1 1.18092 -8.58273 -25.0888
2 -2.48382 -6.49436 -25.0005
4 -1.23567 -3.18839 -24.3535
1 -2.59176 -7.07842 -28.8151
2 -5.08195 -3.49265 -29.1172
6 -2.51932 -0.477954 -27.8995
1 -5.0008 -3.64791 -32.951
2 -6.14757 0.529613 -32.9984
6 -2.42374 2.02171 -31.1469
1 -5.65668 0.760677 -36.8599
2 -4.13774 4.7787 -36.4595
6 -0.907495 3.97042 -34.5154
1 -3.1049 4.80517 -40.1743
2 -0.0253177 7.32887 -39.4523
3 2.80698 4.7026 -36.842
1 1.33228 6.82978 -43.1475
2 5.58784 6.35191 -41.7521
6 5.04991 3.55272 -39.5289
1 6.69214 5.14297 -44.9279
2 9.62506 3.02562 -42.7844
13 7.42653 -0.591012 -40.7774
2 8.99226 -7.62426 -35.4658
10 6.74602 -4.99321 -37.7776
1 9.54561 -5.692 -31.9665
2 11.6035 -2.52477 -33.6484
5 7.94028 -0.328752 -36.7049
1 11.4508 -0.323604 -30.4228
2 11.3723 3.2423 -32.8301
4 7.53492 2.07947 -34.8066
1 10.5844 5.11516 -29.982
2 8.37451 7.98259 -31.6229
5 4.1123 5.64919 -33.0582
1 7.30749 9.37513 -27.835
2 3.4766 10.321 -28.7799
5 1.24686 5.92775 -29.8
1 2.51109 11.267 -25.3153
2 -1.1418 9.81018 -25.8071
5 -1.18918 5.01768 -26.5737
1 -1.97745 9.98961 -21.9877
2 -4.72691 7.11721 -22.3962
3 -2.44866 2.55374 -23.6591
1 -5.32696 6.68429 -18.5734
2 -6.25143 2.43543 -18.4792
5 -2.56702 0.338683 -20.1774
1 -6.33407 1.87965 -14.5763
2 -4.97659 -1.80903 -14.8443
6 -1.62161 -1.53242 -17.1745
1 -4.17024 -2.23686 -11.2011
2 -1.31475 -5.06482 -11.842
3 1.7463 -2.54577 -14.2332
1 -0.219721 -4.79272 -7.91093
2 3.70133 -5.08015 -8.52503
4 3.74086 -2.21339 -11.5016
1 4.10744 -3.40398 -5.51468
2 7.61984 -1.79283 -6.30441
3 6.3868 1.27806 -9.48044
1 7.6765 -0.0990216 -3.13753
2 9.38218 2.86755 -4.90417
5 5.82928 5.01043 -7.39209
1 9.77957 4.98905 -1.35669
2 8.80892 8.90781 -3.16994
3 4.6797 8.1201 -5.59605
1 8.5657 10.5827 -0.123677
2 5.60404 13.3494 -1.68006
3 2.21675 9.94991 -2.89311
1 4.89367 14.5157 1.87913
2 0.908426 15.6399 1.2347
3 -0.943158 11.4521 -0.351903
1 0.00357489 15.6552 5.10468
2 -4.25595 14.5065 4.38927
6 -3.15949 10.6678 2.52992
1 -4.38149 13.358 8.1657
2 -6.91452 9.85321 7.18029
6 -3.74312 7.60031 5.61329
1 -7.19746 8.99413 10.7008
2 -7.57922 4.8569 9.97474
4 -3.85567 4.46973 8.07502
1 -7.43058 3.77793 13.1381
2 -5.93486 -0.00984517 12.2203
6 -2.11294 1.20637 10.4392
1 -5.26882 -0.953876 15.6607
2 -2.06532 -3.07212 14.3397
5 1.42073 -0.519533 13.2801
1 -1.46044 -4.12755 17.8537
2 2.45079 -4.80868 16.8744
6 3.61757 -1.07807 16.2444
1 3.57105 -5.12934 20.4181
2 7.31382 -3.15916 20.0773
3 6.09417 0.993651 19.5063
1 7.72136 -3.65753 24.1175
2 10.2561 -0.121909 24.3384
6 7.44146 2.34634 22.6462
1 9.77507 -0.494899 27.7668
2 9.24561 3.74265 28.5131
6 5.94098 4.34902 26.3132
1 8.46886 3.24763 31.7579
2 6.24407 6.85344 32.0606
4 3.55868 5.8979 28.769
1 4.66026 5.37313 35.6382
2 1.81914 8.0024 35.202
4 0.241523 6.48024 31.3629
1 0.126183 6.25876 37.8984
2 -3.25924 7.74595 36.5419
4 -3.13704 5.18779 33.4255
1 -5.21129 6.28997 39.4166
2 -8.26445 5.70483 36.6472
5 -7.37497 2.17618 33.7144
1 -10.2246 4.13116 39.6003
2 -12.23 1.43735 37.2642
4 -8.7815 -0.142821 35.5508
1 -13.3784 -1.12199 40.1783
2 -13.2392 -4.4024 37.6311
3 -8.54548 -4.85287 36.5372
1 -13.6372 -6.56809 39.959
2 -11.9753 -9.067 37.658
12 -8.10479 -7.39771 38.7492
190
Atoms. Timestep: 10000
2 -0.906474 -8.78357 40.65
7 -5.4037 -6.76355 41.2434
1 -0.241207 -8.18504 36.9248
2 -4.35134 -9.16737 35.4977
4 -6.11909 -6.17885 37.9757
1 -3.58225 -7.91217 32.2184
2 -7.89202 -7.35294 31.6316
3 -8.55899 -3.66662 34.6549
1 -7.47381 -5.90156 27.7839
2 -10.9393 -3.37845 28.1654
6 -9.16353 -0.884153 31.4624
1 -10.2924 -1.55303 24.9921
2 -11.4807 1.68256 26.6897
3 -8.00407 3.08107 29.6566
1 -10.9627 3.5363 23.5415
2 -9.9571 7.10554 25.4289
3 -6.17818 6.29957 27.7219
1 -8.97163 8.4895 22.0443
2 -6.1303 10.8337 23.5821
3 -3.3298 8.0814 25.4683
1 -5.07192 11.8754 20.5191
2 -1.29647 12.5263 21.8453
5 0.579 8.59539 23.9141
1 -0.170314 12.997 18.0583
2 3.30507 11.4903 18.7773
5 2.56894 7.26733 20.6013
1 4.06396 11.4053 15.4261
2 6.89009 8.83775 16.4564
4 4.09235 6.40765 17.8836
1 7.44933 7.67613 12.8393
2 8.69953 4.25171 13.6943
5 4.64695 2.00872 15.3855
1 8.68968 3.01473 9.85726
2 7.83189 -1.14994 11.0109
6 4.06145 0.0380864 12.4405
1 6.90449 -2.60111 7.32028
2 4.37815 -5.04891 8.61793
5 0.618123 -2.52704 9.69987
1 3.54254 -5.68095 5.37273
2 -0.30704 -6.27996 5.87171
3 -1.82039 -1.47251 6.64066
1 -0.65909 -6.4451 1.77826
2 -4.52477 -4.64165 1.90042
5 -4.24657 0.290746 3.50013
1 -4.70262 -4.68511 -1.5128
2 -7.20771 -1.30044 -0.894304
5 -4.49154 2.59128 0.177237
1 -8.23081 -0.411193 -4.84467
2 -8.60574 3.92709 -4.39841
4 -4.47343 4.45605 -2.51467
1 -8.1835 4.51588 -8.3067
2 -6.62985 7.82069 -8.07521
4 -3.47321 6.35938 -5.91285
1 -5.93366 8.06311 -11.9491
2 -2.0854 9.84748 -11.3107
4 -0.678438 7.15911 -9.09484
1 -1.18827 9.81642 -14.563
2 2.97172 9.95216 -13.3707
6 3.09704 6.04105 -11.2318
1 4.30762 8.98201 -17.0589
2 7.39733 6.35744 -15.4982
4 5.11156 3.71084 -13.6928
1 7.98384 5.07297 -18.9463
2 9.93691 2.17432 -17.39
3 6.91705 -0.238544 -15.4322
1 10.1877 0.410616 -20.9681
2 9.90516 -3.41016 -18.9405
4 6.3993 -2.68689 -17.7116
1 10.2787 -5.26426 -22.3398
2 7.36036 -8.35485 -21.361
5 3.24804 -6.47793 -19.8788
1 6.73118 -9.44069 -25.2763
2 2.3662 -10.5152 -24.831
6 1.35766 -6.6482 -22.939
1 1.99136 -10.554 -28.3678
2 -2.27172 -9.32464 -27.3353
4 -0.971683 -5.52841 -25.4595
1 -3.26562 -8.68739 -31.3033
2 -5.54424 -5.41122 -30.0874
6 -2.56784 -3.08936 -29.0684
1 -6.54304 -5.13235 -33.5832
2 -6.90092 -0.585972 -33.0196
6 -2.87285 0.00152395 -31.7399
1 -7.38541 0.103795 -36.7574
2 -5.34495 4.0596 -35.9909
6 -2.01362 2.46386 -34.8005
1 -5.08863 4.40375 -39.2684
2 -1.18817 6.74247 -39.1688
3 1.35098 3.59787 -37.6981
1 -0.570926 7.01103 -43.0195
2 3.63754 7.05032 -42.6947
6 3.84354 3.74886 -40.5978
1 4.03276 5.95864 -46.2939
2 7.10805 3.78019 -45.4858
13 5.70263 0.0785107 -42.7608
2 5.84979 -6.36487 -36.401
10 4.79191 -4.29473 -39.3147
1 9.58554 -7.32463 -36.5473
2 11.3421 -3.23236 -37.2469
5 7.50297 -0.0423377 -39.0291
1 11.2326 -2.48436 -33.5401
2 10.1376 1.56392 -34.4327
4 6.23011 0.747164 -36.194
1 9.95686 2.24853 -30.9888
2 7.09819 5.37361 -31.5256
5 3.14161 3.22338 -32.8282
1 6.80381 6.30177 -27.5034
2 2.93638 7.35163 -27.692
5 0.418573 4.09548 -29.9585
1 1.98886 7.40101 -24.1705
2 -1.94086 6.42049 -25.0795
5 -1.57368 2.05742 -26.9222
1 -2.60738 6.16517 -21.2983
2 -5.80999 3.65319 -22.1088
3 -3.05344 -0.0144723 -24.0767
1 -6.35811 2.55187 -18.6994
2 -6.8859 -1.20329 -19.7107
5 -2.5242 -2.89142 -21.0376
1 -6.99847 -2.62101 -15.8466
2 -4.93134 -6.50435 -16.963
6 -1.87611 -5.11641 -18.3096
1 -4.20025 -7.01094 -12.9202
2 -0.846401 -8.78396 -13.8026
3 1.72644 -5.68857 -15.6366
1 0.319119 -8.8629 -10.3245
2 4.43011 -8.32431 -11.0561
4 4.00111 -4.90227 -13.3671
1 5.14874 -7.64824 -7.27441
2 8.06785 -5.13152 -8.20529
3 6.30329 -1.69206 -10.5599
1 8.31186 -4.01809 -4.98452
2 9.46518 -0.263531 -5.94594
5 5.70514 2.02028 -8.58201
1 9.32685 1.22796 -2.70108
2 8.90049 4.89743 -4.6358
3 4.01721 4.90451 -6.34369
1 8.77777 6.67384 -0.812358
2 5.91303 9.42459 -2.20146
3 1.88388 7.23402 -3.9341
1 5.39671 11.3968 1.64129