156
Atoms. Timestep: 0
15 -33.2156 30.8804 30.1741
15 -19.1234 5.85631 45.2559
15 -14.2489 -28.0259 -47.6277
15 29.1312 20.789 -12.7228
15 37.3343 -6.7637 -21.3331
15 -33.976 -3.46273 23.1215
15 -40.8005 -42.9412 7.97217
15 -39.0618 38.5445 38.7438
15 -38.8755 46.3872 30.6685
15 -26.5906 -38.9485 -27.0246
15 3.79883 -22.1642 -46.1442
15 -16.0271 8.71245 9.71214
15 -20.7711 44.4635 31.6863
15 -18.3988 23.5947 2.47529
15 18.8783 10.929 45.7116
15 47.5453 26.953 -7.75114
15 20.6668 36.1526 -0.692333
15 -21.361 47.0908 -12.1479
15 -32.6173 -41.7848 -15.7607
15 48.0513 -18.3754 -4.70922
15 -28.9733 35.4235 23.1266
15 -25.1175 -30.6036 -18.161
15 34.5946 -1.37475 -23.6975
15 16.2809 30.2264 49.8973
15 -31.2438 -0.895236 10.8263
15 -35.5322 -3.34999 -12.2207
15 6.71664 -32.6832 -26.0681
15 -43.9757 -4.04423 -28.9774
15 -6.12355 13.3385 -20.7622
15 28.1158 11.3897 10.8625
15 -26.5934 32.4164 -3.71405
15 46.5331 -42.7011 15.6823
15 -21.6278 41.8936 -35.6924
15 4.67472 8.17446 44.534
15 4.572 26.9306 -6.36122
15 -34.6017 41.3984 40.2888
15 3.17762 -1.88493 -42.3944
15 27.1095 4.13938 3.56137
15 48.1321 48.0158 -33.1001
15 -22.63 26.1316 28.2896
15 38.2325 49.5382 10.706
15 -15.4816 46.0713 18.0049
15 -49.7993 -25.5565 9.89849
15 -35.4917 29.1182 -31.9271
15 -40.9576 -16.3098 45.0036
15 2.68114 -0.911499 36.402
15 -7.03006 -47.7339 -15.4829
15 0.575547 29.3756 38.6565
15 -45.8631 27.5078 36.6723
15 -28.9632 -45.1223 12.8039
15 49.3264 43.1102 12.3421
15 10.0324 -22.3714 8.41338
15 -21.9627 -22.1706 32.8569
15 37.9358 -7.6623 11.9751
15 -43.9913 1.38006 45.6653
15 -48.9877 -45.9388 -5.24622
15 37.4144 -2.96886 -2.98011
15 -28.0685 47.6067 -23.6045
15 -39.4121 -48.2564 -46.0967
15 47.2602 -27.2196 -41.219
16 10.0642 -27.8932 -48.1088
16 -27.5938 32.1391 -20.4802
16 30.8196 -39.8236 7.34919
16 13.6765 48.1122 49.6869
16 -24.3484 -45.879 1.06696
16 -28.6832 -44.8667 5.12816
16 16.0706 42.5477 -47.8407
16 -36.9095 -35.5208 49.766
16 -6.6107 -27.6726 -25.71
16 2.17032 32.3915 -3.60324
16 4.06155 -45.2022 -21.4641
16 33.5814 35.6174 -11.2877
17 -9.06943 -0.706137 -13.1754
17 -9.38253 24.9454 -9.05442
17 41.6844 46.2623 -3.92109
17 -3.18742 12.3329 -11.3734
17 -1.02811 25.4234 3.10578
17 -1.26211 -35.0906 28.1729
17 0.247496 8.29872 -49.4998
17 24.5375 -39.531 32.8918
17 -29.0657 14.5306 37.6895
17 -0.529841 -1.88803 23.3069
17 38.1825 39.0425 -27.3992
17 -24.9929 -20.34 47.5462
17 15.9527 -28.6556 43.8084
17 -37.9684 18.157 6.14132
17 0.658195 -32.8711 -18.4353
17 -46.236 15.8668 -3.52588
17 31.9369 -33.8857 -45.2272
17 32.4371 40.6518 -34.7581
17 15.3289 -38.414 29.7725
17 3.01839 11.0562 -22.1156
17 -23.6747 -0.76129 -33.073
17 -1.07397 24.2458 -3.41301
17 -3.52779 -9.80151 17.9314
17 46.422 -47.1117 3.21735
17 -22.0133 -43.3478 -30.9159
17 24.4608 38.5891 -14.8016
17 29.2336 21.0262 -24.1498
17 44.4755 -13.6449 -12.5637
17 24.248 39.3735 48.4925
17 -47.8676 -34.3012 -2.26883
17 -30.9406 14.6248 -28.023
17 15.6464 -38.903 12.1755
17 -16.4221 1.37764 -35.5945
17 19.6663 -2.20039 -32.7062
17 -27.1164 25.7863 -26.0539
17 -8.03222 0.247086 -37.4648
17 27.1662 -20.5193 33.5614
17 -46.9836 -26.0437 -30.0835
17 -9.54732 48.2043 -40.7101
17 -11.0549 -49.6633 -25.0113
17 36.6763 -30.6039 39.6135
17 -41.3467 35.0426 -49.2895
17 20.8288 -31.3796 2.0881
17 35.2343 38.2867 49.8877
17 -47.4719 -38.8296 25.674
17 -23.5258 3.13815 -24.0789
17 -10.9907 -19.6956 5.40181
17 -27.4293 -16.6792 29.3581
17 -7.51286 23.7735 27.5623
17 26.7658 49.3949 47.2952
17 17.0897 28.877 -49.0418
17 -30.9345 16.6393 -49.5847
17 44.7395 43.1135 3.55342
17 -29.3394 -17.8772 33.8578
17 26.0624 4.69349 -32.8214
17 5.42049 47.1806 40.952
17 -17.0172 -1.04228 -46.3294
17 -39.1181 -24.2765 -46.9344
17 -41.8229 42.1027 -38.8862
17 40.5148 9.19246 39.9907
17 41.473 28.3703 4.10196
17 30.7179 47.4358 -29.2587
17 -15.3134 -37.164 -4.02239
17 -31.4556 38.8984 -49.3289
17 -14.2771 -5.68113 47.8517
17 -23.325 27.3017 -3.19055
17 -19.6544 38.1836 22.5329
17 -5.47506 36.8755 -26.1719
17 -15.4843 28.3485 -47.8016
17 38.6176 9.0664 49.6342
17 -40.6411 -9.80042 41.8096
17 -26.7863 24.8862 -45.3545
17 19.1913 43.4306 43.5439
17 19.8624 -20.8465 -12.1372
17 17.7142 5.82849 -34.8355
17 -35.4764 36.1741 -46.6519
17 37.0566 -30.4147 49.7087
17 1.69226 14.1102 36.5842
17 25.5204 48.6259 14.9327
17 27.7188 37.2435 -26.0009
17 19.1627 -30.1838 -10.9152
17 17.3521 8.86995 11.6689
17 -29.6206 -8.89223 -46.3285
17 -26.2725 -21.8356 -26.7432
156
Atoms. Timestep: 2000
15 -12.6915 33.8373 -49.8102
15 -13.5805 9.18207 31.0801
15 -15.5113 -19.4928 -44.7208
15 17.064 4.37701 -10.8819
15 48.9872 2.72384 -12.9809
15 -31.5321 -3.47036 34.129
15 -32.3201 26.8733 22.288
15 -45.0551 37.8119 40.3603
15 -30.7725 49.3296 27.2198
15 -27.1697 37.3537 -26.1664
15 4.46063 38.8264 39.0035
15 -14.4722 -3.94133 10.6605
15 -29.1827 28.8299 -45.3308
15 -19.7504 17.7601 10.4913
15 -3.19144 15.4775 -48.8757
15 44.4104 37.3911 -7.02405
15 19.0218 31.2847 -6.83025
15 -33.7211 41.5826 -4.57582
15 38.5068 18.2397 -34.722
15 -32.0805 -12.1995 -12.0733
15 -20.2242 43.8574 6.00774
15 5.76181 -19.8694 -22.9692
15 -40.0545 -5.16429 -23.022
15 -3.68477 -31.1485 28.1815
15 -45.4118 14.6567 10.6931
15 -6.51467 3.63009 -27.8082
15 2.94491 -35.6672 -14.9222
15 25.5942 -10.3813 -39.0851
15 -4.39043 -0.520395 -12.8431
15 30.037 13.7008 6.30751
15 -4.93974 46.3731 -0.327331
15 45.6792 30.5157 2.27201
15 -38.5321 24.0612 44.6989
15 4.10656 13.2898 18.8989
15 -15.5489 45.7302 -20.5492
15 -19.2495 43.1846 -47.3761
15 -4.98398 12.2931 46.4853
15 33.1856 14.19 -17.4704
15 47.6849 18.4264 -30.3638
15 -5.55864 15.9167 30.3454
15 49.8224 45.9964 8.6296
15 -9.71209 20.5542 14.3599
15 43.3228 -16.5856 11.863
15 -35.3783 25.6241 39.3535
15 -32.56 -2.45791 48.8637
15 -4.90272 8.16285 34.8125
15 -9.06777 -43.3096 7.22046
15 -14.808 28.0267 -49.0115
15 -33.6143 19.7338 32.4885
15 -18.2376 -43.0063 19.6162
15 35.2862 -47.5131 18.5082
15 0.185901 -27.2366 -2.90498
15 -18.1112 -40.3339 -39.4772
15 -32.4903 -3.75244 20.2396
15 47.2538 -22.5431 -48.9267
15 26.039 -26.8289 -27.2861
15 34.2861 -24.9359 -16.9442
15 -25.6397 -28.2841 40.9972
15 -46.9034 -35.8408 -48.7858
15 46.9703 -19.8512 -41.04
16 11.9434 -37.71 17.0805
16 -19.5781 18.0558 -42.7429
16 27.1333 -21.6844 19.3996
16 26.1432 49.8614 32.2679
16 -31.7958 48.3733 -39.9655
16 -44.4433 -37.5441 9.2024
16 31.4966 37.8983 -47.7956
16 -31.5602 -27.5217 44.1326
16 -21.6811 -9.9274 -36.8975
16 -1.28068 22.2591 -16.2043
16 28.8944 -37.1311 -36.3813
16 30.1848 -50.1489 -30.7416
17 -27.5497 -0.468513 -17.7245
17 12.6313 37.2073 -8.11755
17 43.3524 -40.9896 13.9462
17 -19.6694 15.8448 -16.8163
17 14.9364 19.173 -0.838215
17 -4.26298 -47.1705 23.0875
17 1.53094 11.0247 46.2351
17 15.6235 -27.9886 12.1474
17 -30.3093 21.1088 -47.7478
17 -0.0140033 16.4586 21.5878
17 37.9164 42.7033 -10.4103
17 -34.5304 -34.7439 -37.8403
17 14.8376 -26.3129 30.2516
17 -43.1828 34.7064 5.03397
17 -2.94414 -40.3915 -30.211
17 -47.1204 -0.40854 4.02919
17 29.1909 -41.4099 -35.094
17 37.0342 40.5634 -48.0649
17 9.23091 -11.1011 10.6436
17 3.00655 15.834 -12.2195
17 -35.6708 13.0538 -15.8488
17 -24.3198 36.693 -5.45832
17 -26.9053 -8.92789 14.956
17 -49.4568 -44.1342 0.735851
17 -12.3719 -24.9265 -30.0373
17 41.9515 38.5627 -11.8026
17 29.0072 12.9676 -13.4577
17 41.7002 3.28447 3.84489
17 28.7745 35.6711 34.5265
17 -16.0137 -34.1013 -19.7524
17 -12.4801 11.5349 48.8166
17 18.928 -22.4734 8.7562
17 -22.6125 -8.96571 -43.5795
17 -4.91573 0.269796 -8.07515
17 4.95186 28.9136 -28.5495
17 -11.039 11.3515 -39.145
17 14.513 -10.3711 31.2021
17 46.6316 -31.8474 -28.8257
17 -5.45224 -49.0301 -31.6971
17 -15.7113 45.0379 -14.0246
17 48.578 -42.795 48.1763
17 -40.4779 -47.3801 47.4367
17 33.3384 -18.0941 -1.36853
17 28.135 34.2908 -47.3863
17 45.3381 37.6541 20.2017
17 -9.3066 0.841823 -14.1093
17 13.6137 -39.6905 28.6492
17 -32.5901 -20.5223 14.0694
17 -9.22672 4.14265 30.6738
17 20.2847 -39.0074 -43.8463
17 21.9612 13.1823 -49.7871
17 -22.9005 16.4121 47.4657
17 -49.1656 31.9622 -4.30475
17 -39.5528 -4.08274 42.5205
17 -43.5676 17.0556 -27.0691
17 -3.65401 39.7178 -47.9902
17 -24.1167 12.014 36.2033
17 -43.8328 -11.4435 -26.3356
17 -41.5342 47.2995 -45.8949
17 -43.4303 23.6008 16.4904
17 29.656 33.8381 12.76
17 31.8225 -45.6663 -39.3679
17 -8.46597 -46.3564 0.204676
17 -23.986 -39.9277 40.3375
17 1.83027 3.3476 -25.2742
17 -23.1905 25.0613 5.46461
17 -31.303 49.5372 23.968
17 -5.56252 42.7025 1.70175
17 -20.4791 24.0844 -38.799
17 38.6727 -2.76798 -38.3436
17 -37.1164 -12.442 -46.0289
17 -40.9442 27.4252 49.0312
17 -9.97273 39.9866 -34.4131
17 15.3021 -10.8567 -36.5195
17 6.80058 -9.47967 -48.5992
17 -21.8751 30.9058 -48.474
17 45.2445 -21.8155 46.2139
17 -15.7002 24.0184 36.4704
17 18.3267 -46.767 12.319
17 35.3691 20.2694 -28.712
17 41.5788 -26.4801 0.532178
17 42.3556 18.5197 1.88546
17 -13.4221 -17.7514 -44.1948
17 -45.7958 -28.9594 -20.4307
156
Atoms. Timestep: 4000
15 10.5149 21.4359 -33.6936
15 -1.69523 27.1638 36.9574
15 7.42088 -7.62839 -35.1961
15 9.2186 -19.3178 -23.2516
15 38.9381 -1.08666 -9.93669
15 -42.0859 4.16803 23.678
15 -47.0513 28.1372 23.7272
15 -27.1634 -43.5047 25.4932
15 -45.5573 45.6936 10.7746
15 -34.364 32.431 -19.7669
15 6.8143 46.4816 42.1136
15 0.393468 1.27177 11.1258
15 -18.3499 -46.6838 32.7483
15 -35.858 17.9323 21.0634
15 -6.89199 19.2652 20.6792
15 34.5251 -39.7911 -22.4216
15 19.5854 35.9593 -6.27544
15 -19.0148 46.4325 0.809889
15 18.5099 6.91998 -25.8539
15 -35.0728 -34.1392 -21.8386
15 -36.5593 -30.2565 0.162163
15 -4.98733 -8.78223 -32.6615
15 -31.034 -3.54536 -9.1873
15 5.28194 -32.6098 28.0933
15 31.9919 25.7045 -3.70794
15 12.1618 8.18214 -42.3026
15 1.74133 -45.3865 -2.56724
15 28.7694 -6.71664 -30.2108
15 -18.868 -0.825681 -16.4377
15 41.5655 38.234 -11.8155
15 1.81879 42.4259 14.5588
15 25.5249 34.76 19.2663
15 35.2299 -5.87602 41.0264
15 5.43254 11.6872 25.6536
15 -3.15019 38.0602 -30.433
15 -30.222 40.4324 -35.127
15 24.3065 36.7541 -42.0597
15 24.5072 6.65026 4.02056
15 -26.4574 37.9106 -41.2518
15 -4.69218 38.65 -46.4901
15 44.3532 40.6435 12.3192
15 -47.2357 19.5296 11.6471
15 41.9494 -13.2577 27.5222
15 -29.9371 37.9802 36.219
15 -39.7273 8.86774 -31.6923
15 -7.70349 4.61178 -48.0337
15 -18.8928 -36.0958 26.1434
15 -8.11646 18.9462 49.3342
15 -24.6464 18.9092 35.9784
15 -14.5062 -47.0327 15.8881
15 35.8937 -36.1629 8.89567
15 18.922 -16.2182 21.4043
15 0.97666 -23.6475 -31.7819
15 -37.8506 10.9311 22.3987
15 28.7371 -38.6211 46.5258
15 15.5239 -41.1186 -39.088
15 6.27656 -31.1241 -39.492
15 -22.8034 -19.7952 49.9567
15 43.8445 -15.2315 -40.8348
15 -45.4105 -36.3865 -32.5758
16 16.6345 -50.0979 12.9242
16 -30.5187 6.17317 -30.6256
16 9.02116 -7.57291 29.7099
16 21.4787 46.1263 37.2306
16 -30.8443 48.7515 44.4203
16 49.0128 -28.7922 6.77151
16 47.8098 39.9815 40.7422
16 -34.0049 -26.9466 36.0108
16 -21.4944 -17.6229 0.195297
16 6.59142 29.5361 -12.5526
16 17.6293 -29.5323 -21.0057
16 39.7091 46.4356 -20.048
17 -47.9738 -23.9708 2.42926
17 30.9093 39.2797 3.81892
17 44.4933 -32.9167 6.64726
17 -19.5705 20.1374 -7.63102
17 18.1388 14.692 3.02423
17 -6.06514 -34.7444 28.8268
17 2.16863 27.124 47.7044
17 42.6212 -17.0422 26.2798
17 -43.6447 22.386 39.359
17 7.53939 31.1063 19.3184
17 24.2398 -46.7486 -1.91824
17 -44.4262 -24.3927 -42.8809
17 15.8498 -37.3985 10.8852
17 -44.0064 21.5228 24.5105
17 6.70862 -25.3656 -32.8336
17 44.9591 -0.505834 -7.82782
17 19.5222 -30.4295 -25.276
17 26.4458 -41.0485 -40.6323
17 11.3919 -12.81 30.5691
17 -3.88817 31.0418 -10.9368
17 -28.787 15.9122 -14.738
17 -38.9217 39.4969 -10.459
17 -32.3446 1.6322 33.6086
17 -37.888 49.6295 -3.74573
17 -24.8364 -19.882 -17.5246
17 36.3032 47.4344 -5.64708
17 27.6222 11.4247 -8.62321
17 25.3438 14.1676 3.23233
17 36.0558 41.436 28.3521
17 -20.6294 -29.1843 -31.4338
17 -11.8725 13.0973 42.272
17 18.0214 -28.2727 21.139
17 -12.375 -9.3073 -24.9622
17 -10.4482 9.77856 3.71787
17 22.8452 29.6279 -18.6934
17 -9.39579 24.7657 34.9538
17 18.976 -17.3783 27.8848
17 34.8902 -48.0551 -26.722
17 -2.77046 49.6831 -35.1266
17 -14.2724 35.7482 -19.18
17 49.576 -49.704 47.9194
17 -46.794 37.5113 41.118
17 26.9261 -10.9839 6.0078
17 25.6483 37.5243 47.0918
17 48.7128 40.5205 34.5965
17 1.54373 0.177693 -14.5686
17 16.9933 -41.3211 20.3588
17 -28.1465 -25.8129 37.6826
17 -9.57257 10.2337 32.9996
17 21.0191 -41.4899 -48.3938
17 26.3551 7.60894 -24.2491
17 -29.3517 5.46449 42.8244
17 39.3811 -45.4564 -0.337853
17 -43.0241 0.385327 31.3778
17 -36.7559 29.2395 -16.6346
17 -4.07944 30.8811 -38.3661
17 -45.091 5.85353 18.3637
17 -22.1541 11.291 -40.5843
17 -34.3006 43.5778 -32.9066
17 -49.9982 13.7519 23.3963
17 2.87172 26.0238 9.185
17 47.6073 45.9495 -38.0111
17 -6.96991 45.9869 14.1706
17 -22.5614 -35.2229 -44.7017
17 9.38456 -19.9902 -39.2176
17 -19.5245 -1.07714 29.7937
17 -47.0924 46.1865 13.2159
17 -29.4612 48.1289 19.8974
17 -29.4047 13.9504 50.0196
17 29.625 -12.7393 -43.0463
17 -29.6244 -21.5024 34.902
17 42.8934 24.4953 -27.9619
17 -21.5931 -47.9408 44.8636
17 17.1224 7.17571 -33.4393
17 2.04509 -5.26905 -39.2033
17 -28.5488 45.6063 39.5274
17 -37.7766 -25.2211 49.1155
17 -19.9848 38.7551 -43.9497
17 12.2109 -48.5677 11.2825
17 39.7481 41.1997 -19.5307
17 39.8441 -2.96144 -8.27199
17 -49.2748 26.1705 22.8552
17 -7.8739 -29.5513 37.0871
17 -40.1734 -41.528 -8.96587
156
Atoms. Timestep: 6000
15 -16.7747 24.868 7.05626
15 0.970821 11.4837 43.4306
15 -11.4717 -12.2883 -31.8417
15 12.8486 46.3518 -22.0583
15 43.416 -21.7396 -6.04826
15 -18.9262 18.6704 38.1654
15 -48.1085 38.2177 37.8656
15 -33.4719 -23.3697 5.04149
15 44.7202 42.8456 26.5105
15 -32.906 30.1942 -1.52465
15 4.6584 -37.3648 45.4519
15 -20.324 -9.06854 25.9366
15 -2.64089 -49.7568 12.3144
15 -13.2912 21.7109 26.1384
15 -30.8576 40.5807 1.57692
15 37.5399 -32.3686 -26.2183
15 22.0251 38.9521 17.4594
15 -44.6993 -39.2199 6.97961
15 37.2019 10.5785 -16.4659
15 -23.577 -24.9725 -32.0759
15 -9.3074 -42.2034 -2.64145
15 6.04987 -12.6911 -27.239
15 28.626 -1.213 -13.9031
15 11.5295 -17.5177 16.3125
15 32.4256 24.2108 -17.3469
15 14.36 12.5481 49.3131
15 26.2217 48.0086 -16.2895
15 17.2443 -7.19446 -48.1245
15 -10.8522 -0.850732 -18.116
15 -28.0549 44.6031 -4.78092
15 11.0121 36.2252 -4.91258
15 -49.4793 -40.7321 39.8517
15 -29.3115 -16.1677 44.0024
15 34.0465 29.4445 0.207431
15 -11.0357 24.5985 -32.2906
15 -13.3993 36.5965 -31.2342
15 30.2414 46.4348 -25.3624
15 35.9377 16.6499 21.5247
15 -1.70577 33.9064 -28.2019
15 -6.48097 -45.2655 -20.3121
15 27.8202 16.8346 6.69868
15 44.3425 22.3913 29.8335
15 42.2278 6.8986 32.8637
15 -44.135 29.2384 41.0628
15 -34.3627 31.6989 -20.8006
15 -20.8301 26.6752 23.2399
15 -30.8821 -33.4135 44.9215
15 -10.4246 48.7484 -36.1757
15 -17.0088 9.49888 34.4379
15 -34.8725 -33.4416 26.8329
15 27.7379 -30.0542 12.1091
15 39.2462 -3.37887 37.2769
15 -4.99746 -26.831 2.7081
15 -38.0438 11.0863 25.2151
15 45.2903 -45.9715 28.145
15 -2.16603 39.1562 -46.6848
15 25.4248 -21.3539 43.7446
15 -4.62617 -8.73192 -26.4612
15 43.7944 -11.6049 43.7989
15 -38.4303 39.8338 -23.0411
16 27.9526 -47.1629 18.97
16 -36.9491 10.4675 -14.7978
16 6.3987 -12.0957 28.7964
16 35.4504 33.5737 -42.1239
16 48.8806 46.4912 35.4189
16 44.0063 -48.8396 -24.1523
16 47.1758 49.5362 -49.3007
16 44.3826 -12.525 -46.5762
16 -24.2672 2.20987 18.9559
16 16.3856 8.5064 -25.8439
16 18.4573 -22.6683 -38.73
16 31.308 -35.5005 -11.1543
17 -26.7545 -15.9133 -25.6878
17 28.8469 40.4744 -12.4524
17 35.0868 -15.7975 12.766
17 -23.7773 33.1302 -0.767329
17 20.3871 12.2609 21.2714
17 10.0906 -25.5047 22.4838
17 12.0447 33.3801 -43.6631
17 41.1076 -32.4656 11.9369
17 -27.245 30.3019 24.6946
17 19.5751 31.6825 -0.414577
17 13.8831 43.8848 0.205166
17 43.9636 -33.7922 -28.6302
17 17.7431 -47.291 11.868
17 -49.0245 24.7491 42.6167
17 15.0674 -20.3014 -43.4378
17 28.5623 2.22356 -14.9641
17 26.9306 -39.8176 -19.6145
17 23.6275 -42.1181 -40.9636
17 -2.80585 -11.5354 24.8973
17 5.81262 17.2815 -16.0703
17 -44.0489 17.3037 46.2131
17 -24.5316 42.8494 -16.3386
17 -14.5007 12.9391 22.611
17 -28.8816 44.7799 -2.33648
17 49.9706 -23.8334 -17.5878
17 34.1647 -42.0743 -12.2213
17 27.7873 14.7059 -0.154833
17 31.6936 5.69494 16.0681
17 -48.8525 45.4623 18.841
17 -21.5549 -3.28271 48.1875
17 -20.4832 7.88338 28.7938
17 12.1943 -4.5324 35.3529
17 -6.9719 -4.99519 -13.8327
17 0.329899 -9.47717 11.2578
17 21.4113 19.2611 -4.40503
17 0.860272 8.4585 39.2226
17 27.2778 -13.2427 29.1507
17 29.3443 39.0926 -31.2232
17 0.0864729 -41.9588 49.6223
17 2.71229 -49.652 -33.5256
17 -43.2337 -47.6044 39.2655
17 -35.4655 36.6147 44.3028
17 26.4922 -21.6347 20.4097
17 9.78733 47.7082 48.8652
17 47.3262 38.6831 37.0721
17 -3.89502 4.40045 -31.6148
17 26.4619 -45.6252 37.5485
17 -47.1253 -28.1495 44.1159
17 -22.8596 22.2435 41.6442
17 17.9701 -31.6702 -26.4036
17 23.808 1.57935 -30.015
17 -35.3436 14.4524 25.1042
17 44.0467 -41.6003 -4.92376
17 -35.9078 -10.0026 48.1605
17 -41.3334 33.1586 -24.5595
17 -0.803583 18.33 -33.5976
17 36.078 0.48553 -36.0083
17 -8.63853 17.5154 -37.2083
17 -36.2642 43.2969 -30.5341
17 44.3578 16.7189 25.1068
17 1.43589 29.5692 22.4434
17 36.441 48.3692 -34.7265
17 -9.80342 -44.6519 18.4128
17 -22.2946 -39.0773 -37.8683
17 -5.46044 -18.0312 -42.2964
17 -18.0315 -1.8573 22.182
17 45.7893 -41.8962 15.7401
17 -25.0475 49.5324 1.24118
17 -35.4891 40.1621 47.2907
17 30.2779 -11.1673 -49.6093
17 -31.9125 -22.2358 11.5782
17 41.8539 28.8703 -22.7655
17 -30.2195 -37.0111 37.6155
17 18.2826 5.41531 -42.2332
17 17.5587 -8.89614 -46.1046
17 -40.458 -48.9918 32.2701
17 -42.2877 -20.6177 47.7456
17 -8.74947 39.8556 -26.5267
17 -4.48677 -26.1797 11.0626
17 -48.4873 40.3533 -1.81841
17 42.4097 -22.0614 -8.41492
17 -44.8633 27.2341 10.8133
17 -31.0081 -31.0604 43.6127
17 -23.0145 -37.561 2.94279
156
Atoms. Timestep: 8000
15 -26.867 31.4543 21.2272
15 14.3916 7.19754 25.6619
15 -18.1335 -2.79518 -16.5414
15 23.0682 -29.0856 -32.7082
15 41.2744 -21.5665 -1.58053
15 -22.5443 22.2683 32.9337
15 -44.0069 10.015 40.004
15 -8.36011 -23.5441 4.2024
15 47.5688 -44.3369 24.1343
15 -27.896 43.019 -13.5416
15 21.4638 -45.0141 -43.0592
15 -33.0666 10.491 18.8071
15 -19.1754 46.2741 31.8453
15 -5.28198 20.1186 12.3584
15 -41.8164 35.0068 17.6829
15 10.0654 -37.5792 -40.5229
15 19.7648 49.4141 10.9575
15 48.6095 -48.3869 16.4504
15 25.2955 -6.27332 -18.188
15 -16.738 -35.93 -46.3412
15 3.85441 -40.4685 -10.5991
15 -15.8581 -0.401995 -46.0748
15 41.1919 -26.3192 -6.25069
15 24.4469 -37.1521 37.5755
15 30.1695 50.2021 -38.6938
15 -7.46952 7.54503 -28.6217
15 34.6191 26.0214 -6.57581
15 9.31748 4.42527 -43.5356
15 -8.76539 13.5431 16.1237
15 -19.8764 44.7566 -6.69194
15 2.61115 -42.9539 4.49942
15 -29.9831 -41.3458 -41.5209
15 27.166 -32.3556 44.2419
15 38.7611 34.7505 18.911
15 -0.714704 27.2979 -42.3507
15 -4.86713 36.2127 -32.8266
15 25.1524 43.4268 -31.1523
15 32.9489 -0.179268 15.0089
15 -9.00356 48.1992 -26.5612
15 9.54812 -38.9556 -22.245
15 37.2549 10.9249 20.1747
15 -40.4511 34.4594 9.91344
15 39.7255 -6.7154 36.8338
15 -47.8785 35.2848 48.874
15 -38.4271 45.7607 -24.8075
15 -24.0119 32.7911 30.1148
15 -44.1254 -33.6977 33.2981
15 -12.4782 -38.8091 -22.7085
15 -4.06703 -25.7922 22.808
15 -38.2594 -38.9237 44.2142
15 27.2225 -17.9671 5.8446
15 -48.1527 -6.29478 7.49201
15 0.74515 -47.5957 27.9066
15 48.0069 12.2975 19.1922
15 42.2765 42.8337 8.06126
15 -17.195 12.7125 -43.1688
15 29.3183 -46.9714 38.1701
15 16.1648 -22.2664 -31.5546
15 41.2773 -17.0326 28.0436
15 49.4652 -26.6464 -18.4944
16 -39.9738 -21.8443 28.5194
16 -32.7298 10.548 6.93468
16 16.1207 -10.8396 21.5204
16 41.5855 32.8892 -42.4057
16 -28.1572 -45.2282 23.7715
16 49.2942 42.035 -32.4047
16 -13.1792 37.7587 -47.389
16 -48.7221 -18.311 -41.9994
16 -2.36325 -14.3238 5.91075
16 5.85498 2.92803 -17.7028
16 18.9252 -23.2146 -39.5293
16 27.0611 49.2189 -12.5658
17 -34.8149 -23.301 -38.7153
17 19.614 35.7772 -13.9697
17 33.7836 -13.48 -2.00647
17 -30.0276 26.1953 -3.40071
17 8.81148 24.6211 22.2276
17 -5.01761 -12.5347 34.6786
17 -2.88402 29.5817 40.0034
17 -48.1906 -25.8182 14.821
17 -22.824 30.3309 22.4057
17 -0.886552 35.5212 6.3491
17 35.6277 -50.6673 -3.83057
17 41.7835 -32.4773 -47.8205
17 17.6656 -43.6776 18.7397
17 -32.7435 32.8652 30.2181
17 24.3487 -18.1569 -25.8488
17 29.8573 7.84844 -16.1213
17 19.2356 -18.791 -34.0815
17 24.0872 -41.7733 -35.5227
17 -19.518 -12.4944 11.5181
17 -8.62043 33.4291 -2.94957
17 39.4601 14.4327 30.8989
17 -7.67122 44.1882 -19.0376
17 -15.3556 16.1145 29.4585
17 -28.9849 37.5785 5.60471
17 -48.6331 -33.0312 -23.9918
17 22.5327 -26.7839 -31.4852
17 39.6248 14.005 -17.0229
17 17.7881 5.92991 22.4662
17 -47.7876 -45.0989 19.5962
17 -8.6118 -12.3711 -47.7908
17 5.8631 1.10447 23.2445
17 27.0709 -10.6391 32.3701
17 8.28683 7.27803 -22.0994
17 18.3215 -14.5111 11.5777
17 42.3692 21.1891 3.38237
17 -10.0693 20.0803 43.0535
17 -1.81778 0.497238 34.8535
17 -43.8388 48.2203 -30.6196
17 12.2214 40.7354 48.2623
17 12.9372 -42.0601 -28.0139
17 -37.2783 45.8604 48.4585
17 -30.3897 -49.8315 37.9381
17 39.1267 -25.6422 8.21174
17 2.9346 -38.3632 -40.3362
17 45.5611 -49.6627 26.46
17 -0.741512 5.1227 -13.2377
17 33.0766 -41.757 27.4135
17 -41.8333 -34.63 46.5068
17 -16.587 33.5333 38.9736
17 21.263 -43.5919 -13.7987
17 14.2104 -12.8957 -12.8596
17 43.261 16.5242 19.0563
17 40.9733 -31.4911 -5.58166
17 -34.2596 -23.5176 27.7903
17 -45.8875 36.3309 -28.4401
17 10.3056 31.6349 -25.5835
17 41.5665 -7.92034 43.0375
17 -7.87815 32.5707 -33.2453
17 -30.1841 -37.4698 -18.9576
17 33.5435 4.43828 32.108
17 -6.50554 16.3189 13.4099
17 24.5981 37.9589 44.0652
17 -18.9555 37.8975 32.4073
17 -33.0218 -41.8591 -44.9484
17 -14.2537 -16.2602 -34.435
17 -24.6404 4.10071 30.9788
17 29.9682 48.1772 38.1019
17 -32.6949 39.0903 -10.1142
17 48.7773 42.2419 -44.1761
17 39.7089 -12.8328 -45.8534
17 -24.7742 -7.35812 19.0881
17 45.2945 15.4676 -45.0908
17 -24.1712 -35.3652 41.7679
17 15.3358 -17.9352 46.0115
17 11.2747 3.67342 -41.6407
17 -41.5637 48.9904 25.4376
17 -43.4833 -6.49021 16.3815
17 -12.1516 33.5573 -38.598
17 -3.11052 -43.2533 -1.90479
17 42.2409 -43.4038 1.34934
17 40.3457 -19.4043 0.0225415
17 40.9776 24.8307 -9.16536
17 -46.7751 -22.5132 41.1627
17 -26.3778 -33.7053 1.75257
156
Atoms. Timestep: 10000
15 -11.1703 49.3683 28.4128
15 8.62311 4.90988 42.4757
15 -26.1335 -17.4633 2.03985
15 19.2954 -24.9303 -32.4971
15 39.8897 -17.2075 -4.19042
15 -9.9528 22.0797 33.8548
15 47.3759 28.8771 32.5128
15 -30.498 -3.62343 -34.881
15 -31.1324 46.054 27.3965
15 -11.5974 37.0029 8.32527
15 31.8148 39.2563 -47.3288
15 -41.7575 20.8983 -46.3493
15 -20.5344 35.8659 33.8356
15 0.435916 32.068 13.1065
15 -31.0828 40.9694 18.8228
15 -6.86747 49.0159 -23.5025
15 34.2379 41.2123 7.23523
15 -49.7654 -29.0569 6.61863
15 -40.993 -6.21323 15.3055
15 -38.6465 -40.5287 37.0765
15 -1.12288 -44.1018 -9.59969
15 -30.6433 -9.31827 -29.9631
15 28.4045 -24.4471 -30.3419
15 30.0212 -30.6364 44.7551
15 20.2908 -35.9275 28.6193
15 1.5745 -9.63266 -18.3051
15 13.9943 10.07 9.88465
15 6.5132 -6.14576 -32.201
15 6.2837 0.97566 13.3052
15 -29.9371 36.879 -2.2131
15 10.3615 -16.1715 8.45896
15 41.0532 49.9208 -11.1648
15 -3.81808 -44.5583 34.1055
15 24.3943 6.55454 -5.8852
15 -3.95104 34.7476 -29.1443
15 -4.18654 20.4902 -39.2339
15 42.8217 -38.9174 -30.1094
15 17.7962 -4.00021 28.9249
15 6.98412 35.5256 -8.61831
15 -4.41277 40.0736 -9.74249
15 30.6721 16.9086 40.7899
15 -21.4228 11.6674 6.96641
15 39.2352 -5.24556 41.2104
15 -28.9851 31.4342 36.5746
15 -41.0528 -43.4541 -36.9281
15 22.2525 -41.2781 39.3713
15 -38.4972 -23.3127 35.9083
15 -26.7384 -9.73008 -44.6251
15 -11.292 -17.438 39.9987
15 -19.9857 -35.1841 -42.7894
15 -43.5482 -17.9815 -16.8343
15 46.1375 18.4363 3.53579
15 16.7996 -12.4484 34.7271
15 49.1969 8.75382 14.7676
15 32.471 -45.2559 -0.672941
15 -11.7229 41.9651 40.5719
15 36.2651 46.2768 32.38
15 21.6089 -27.0704 -36.6573
15 14.9956 -24.2631 41.7383
15 -40.1549 -32.103 -25.7548
16 -35.2537 -16.2903 26.2322
16 -28.9086 14.0952 12.6533
16 25.9007 15.6534 7.97062
16 37.7364 21.0207 -42.8631
16 -46.7433 -42.2809 21.3047
16 -26.9136 29.8547 -37.2841
16 -28.5987 40.3873 -17.3864
16 26.8177 -17.1538 43.5328
16 1.40879 14.199 24.1331
16 25.412 13.5892 -25.3022
16 36.4286 -22.1072 -32.1498
16 24.6319 26.7372 -17.0568
17 -40.3996 -15.5213 -42.3992
17 18.2058 23.5972 -30.251
17 18.1497 -15.9857 -15.2902
17 -41.6995 27.8852 -9.15496
17 17.9482 29.3278 16.5508
17 -28.3934 -0.8983 36.8606
17 -12.925 28.6688 41.3307
17 44.9769 -22.3073 19.8705
17 -34.7486 38.8434 20.6834
17 -6.79877 23.7467 3.0258
17 38.8887 45.8076 9.34134
17 29.1689 -28.0498 -37.9473
17 33.6257 36.695 13.894
17 -23.8919 18.9821 6.42264
17 19.7242 -25.4478 -41.0571
17 28.0255 4.31865 -7.23576
17 10.015 -19.4326 -26.1149
17 35.1248 -26.9069 42.1351
17 -19.4306 -4.01848 22.4442
17 -13.5102 -37.4095 -19.1048
17 43.2605 5.29188 29.0139
17 -0.162485 49.6539 -23.7932
17 -8.20941 21.9199 25.7515
17 -22.3496 19.6523 2.24793
17 -39.5613 -35.5588 -29.0831
17 39.0635 -25.5728 -30.2326
17 -48.6853 15.3056 -12.2562
17 19.4641 -6.92925 16.6488
17 -29.2662 34.8202 7.79175
17 3.38051 -7.75977 48.5765
17 8.28356 -9.35412 23.6454
17 22.4054 -4.36803 36.2387
17 23.4234 20.3794 -16.2429
17 18.9131 -12.4758 24.5581
17 29.0266 13.0078 11.3143
17 -0.830918 20.543 41.2937
17 -4.07901 -23.3203 33.5436
17 49.4631 45.2128 -34.3924
17 24.9808 -41.2382 48.8508
17 -15.8066 49.6049 -30.2991
17 -22.0234 37.5988 -42.7381
17 -40.2021 41.7893 48.8462
17 36.0512 -38.8168 -3.23476
17 10.741 -47.8953 -42.6388
17 -40.3819 -46.313 26.8734
17 -9.16896 -5.03596 -8.41327
17 33.264 -49.8139 29.6558
17 -37.5929 -33.8842 40.5418
17 -39.3836 32.171 40.6869
17 23.7425 -45.9381 -0.0431952
17 10.2136 -32.7564 -10.5288
17 -25.9095 18.2351 22.4053
17 42.1943 -33.3732 -22.2587
17 -36.797 -22.9537 24.1541
17 -37.1486 34.724 -27.5806
17 18.0631 38.4909 -11.0654
17 22.8694 -15.997 36.6564
17 21.574 32.095 -32.1638
17 -3.33246 -31.4739 -31.0072
17 31.5722 0.492746 21.7716
17 -8.86929 11.6812 11.6827
17 8.45923 -43.8109 40.9087
17 -10.7562 46.5656 35.9544
17 -37.6566 -49.3372 -28.7318
17 -9.29947 -11.6922 -36.9571
17 -31.3645 1.12145 43.6903
17 44.7654 -42.5702 46.9878
17 -39.744 47.5775 -13.8385
17 -38.2142 31.55 -40.6578
17 35.8049 -13.0298 45.2259
17 -21.8857 -24.2137 36.7911
17 43.9791 17.07 26.5727
17 -19.1021 -37.7397 -49.4002
17 15.9727 -9.95814 -45.6194
17 5.35536 -3.79088 -32.1759
17 -46.4551 -35.6124 21.963
17 42.867 -20.7848 14.2394
17 -10.6384 21.1604 36.8764
17 -7.45413 -40.937 3.95437
17 48.6067 -42.8388 16.2671
17 39.063 -17.5895 -0.0145607
17 13.5676 24.3026 0.515239
17 -38.6173 -23.6502 33.2999
17 -27.4171 -14.5878 -5.18635
156
Atoms. Timestep: 12000
15 -11.9883 33.5511 27.925
15 13.5533 -10.5824 24.8694
15 -39.0304 -31.7083 -6.05919
15 35.8069 -36.1394 46.6802
15 46.4201 -14.4386 14.8161
15 18.7812 45.18 19.5714
15 -47.809 31.3269 23.2019
15 -42.0893 -23.2967 -39.7077
15 44.4937 24.9979 2.42002
15 -9.15529 14.4609 11.3779
15 47.8412 -43.7178 42.6958
15 42.3275 2.54276 42.8611
15 -21.2656 1.63169 24.6321
15 28.8266 42.6614 4.17823
15 -25.7422 20.1663 12.8875
15 -14.0494 -43.7586 -23.9866
15 42.0057 37.007 -8.79362
15 -47.2883 -25.3143 9.84949
15 -27.2813 -19.6071 11.785
15 -47.6509 -41.6016 31.1639
15 0.529927 -37.3722 -26.4486
15 -47.3813 -9.09469 -15.4108
15 39.3925 -43.6595 -15.6413
15 23.798 -12.5972 -48.1457
15 25.5853 47.1597 35.562
15 18.5026 -19.5747 -13.4435
15 16.0173 12.0089 0.904579
15 2.64293 -18.4518 -40.3075
15 -13.5561 4.39137 7.11344
15 -31.3818 13.2504 -22.4121
15 16.7541 -17.1402 7.65079
15 -45.5652 36.4681 -7.0027
15 -14.4364 -48.8747 29.2292
15 18.0978 -10.6812 -10.3941
15 -4.11176 12.1802 -43.5401
15 -44.5971 16.7665 -36.9021
15 38.8978 41.9822 -35.0875
15 18.8984 -2.12784 25.0945
15 -1.0032 -34.2406 7.04766
15 -26.1526 -44.3061 -11.3425
15 33.2685 26.1006 44.4499
15 -30.9351 -9.69925 20.8254
15 -45.5085 -10.1011 30.997
15 49.642 32.3122 35.7296
15 -18.6257 36.7517 -32.5436
15 -1.91851 -33.9781 37.106
15 -36.2137 -15.7081 17.4057
15 -36.1816 -19.551 -38.0013
15 9.42751 -24.3554 30.5866
15 -3.31629 -21.6211 43.0811
15 -18.6229 -43.5959 1.23919
15 -38.9496 22.8725 2.1307
15 28.6847 4.17184 33.5136
15 -45.3657 13.0988 13.3389
15 47.6553 -46.6864 7.88234
15 -13.4117 -44.506 37.8445
15 20.4141 34.2947 35.8424
15 -8.60939 -45.0621 -38.9326
15 -3.43366 -20.0825 -34.0942
15 -43.9444 -34.7253 -14.3811
16 -48.3629 -28.2951 22.1816
16 -4.6926 4.28185 42.2304
16 11.9787 21.0847 23.2552
16 35.2765 15.8366 -27.3831
16 48.2716 -32.6766 37.2362
16 -23.6522 35.0043 -48.967
16 -25.2005 40.7916 -11.9079
16 -3.11315 -9.3736 47.0244
16 -9.29489 6.63304 26.7161
16 45.0156 -2.15286 -37.0451
16 36.1229 -27.834 -25.1809
16 30.5277 47.5193 -22.2212
17 43.131 -24.857 -43.4003
17 34.5292 9.84274 -43.2776
17 20.4423 -21.3237 -5.3903
17 -33.3751 46.7234 -11.5782
17 7.3791 20.0309 20.9047
17 -42.4121 -4.50834 16.7114
17 -28.9929 28.9453 -48.3005
17 25.5162 46.5989 13.964
17 -49.5653 35.3843 15.2049
17 -6.82259 15.393 12.4971
17 31.1998 -42.0001 -11.805
17 39.7502 -10.6543 -44.0435
17 36.4766 22.7358 2.77676
17 -16.5346 -5.9802 -7.70053
17 24.0751 -32.9924 -49.2343
17 49.8393 32.9662 -5.17869
17 10.477 -25.1512 47.6897
17 -47.0696 -39.1065 30.9056
17 -25.8002 -16.8649 7.77612
17 -11.4665 -38.5094 -13.6626
17 47.8555 12.6739 24.1601
17 -5.02509 21.7525 -23.9104
17 15.9225 13.7057 28.1191
17 -48.1674 20.0844 3.25381
17 -39.1831 49.9552 -39.7585
17 46.9352 46.621 -17.7013
17 36.9777 10.3497 -14.6794
17 17.194 -19.0472 15.3392
17 -25.9594 21.6388 8.2356
17 1.02262 -8.46753 35.5056
17 -8.18656 13.434 27.9414
17 14.4243 -5.17711 42.3686
17 29.8589 34.2318 -15.0016
17 42.0793 3.96058 34.4858
17 34.7914 11.5957 3.03391
17 -2.65234 6.58776 -48.6791
17 -8.5696 -3.09285 31.5186
17 34.9536 44.0104 -36.6113
17 20.9168 -38.3673 45.9395
17 -13.6958 -36.0152 -37.6007
17 -10.5279 48.4705 36.4504
17 36.7377 48.9239 -49.6525
17 32.961 -39.2453 1.20268
17 8.19395 39.6188 -24.9317
17 -41.8116 -26.9502 25.289
17 -18.8895 -42.4087 -8.71896
17 -46.9052 -45.5423 16.8589
17 43.7059 -40.1114 36.5457