190
Atoms. Timestep: 0
2 -1.98868 6.69027 53.6768
7 -1.26467 2.17436 52.6008
1 -0.669098 8.88253 51.2028
2 2.32356 6.55445 50.2968
4 -0.239912 3.39847 49.2888
1 4.67971 7.55239 47.8228
2 5.73241 3.90989 46.9168
3 1.66126 1.82583 45.8408
1 8.22515 3.33234 44.4428
2 6.93579 -0.233265 43.5368
6 3.10594 0.865236 42.5208
1 8.61298 -2.16571 41.0628
2 5.47407 -4.29248 40.1568
3 2.23394 -1.0646 39.0808
1 5.69508 -6.84169 37.6828
2 1.90555 -6.71728 36.7768
3 1.18154 -2.20137 35.7008
1 0.585967 -8.90954 34.3028
2 -2.40669 -6.58146 33.3968
3 -0.338045 -2.50245 32.3208
1 -4.76284 -7.5794 30.9228
2 -5.81554 -3.9369 30.0168
5 -1.79204 -1.50059 28.9228
1 -8.30828 -3.35935 27.5428
2 -7.01893 0.206255 26.6368
5 -2.33182 -0.18768 25.5428
1 -8.69611 2.1387 24.1628
2 -5.5572 4.26547 23.2568
4 -3.34784 0.852215 22.2488
1 -5.77821 6.81468 20.7828
2 -1.98868 6.69027 19.8768
5 -0.914942 2.11083 18.7828
1 -0.669098 8.88253 17.4028
2 2.32356 6.55445 16.4968
6 0.095336 3.2515 15.4808
1 4.67971 7.55239 14.0228
2 5.73241 3.90989 13.1168
5 1.70891 1.47358 12.0228
1 8.22515 3.33234 10.6428
2 6.93579 -0.233265 9.73684
3 2.41718 0.473651 8.66084
1 8.61298 -2.16571 7.26284
2 5.47407 -4.29248 6.35684
5 1.91366 -1.21877 5.26284
1 5.69508 -6.84169 3.88284
2 1.90555 -6.71728 2.97684
5 0.831811 -2.13784 1.88284
1 0.585967 -8.90954 0.502844
2 -2.40669 -6.58146 -0.403156
4 0.156782 -3.42549 -1.41116
1 -4.76284 -7.5794 -2.87716
2 -5.81554 -3.9369 -3.78316
4 -1.88661 -2.89044 -4.79116
1 -8.30828 -3.35935 -6.25716
2 -7.01893 0.206255 -7.16316
4 -3.22526 -1.2565 -8.17116
1 -8.69611 2.1387 -9.63716
2 -5.5572 4.26547 -10.5432
6 -3.10446 1.12564 -11.5592
1 -5.77821 6.81468 -13.0172
2 -1.98868 6.69027 -13.9232
4 -2.20754 2.63026 -14.9312
1 -0.669098 8.88253 -16.3972
2 2.32356 6.55445 -17.3032
3 0.254915 2.47544 -18.3792
1 4.67971 7.55239 -19.7772
2 5.73241 3.90989 -20.6832
4 1.80348 2.86343 -21.6912
1 8.22515 3.33234 -23.1572
2 6.93579 -0.233265 -24.0632
5 2.24869 0.160669 -25.1572
1 8.61298 -2.16571 -26.5372
2 5.47407 -4.29248 -27.4432
6 3.02133 -1.15265 -28.4592
1 5.69508 -6.84169 -29.9172
2 1.90555 -6.71728 -30.8232
4 2.12441 -2.65727 -31.8312
1 0.585967 -8.90954 -33.2972
2 -2.40669 -6.58146 -34.2032
6 -0.178467 -3.27851 -35.2192
1 -4.76284 -7.5794 -36.6772
2 -5.81554 -3.9369 -37.5832
6 -2.07144 -2.57448 -38.5992
1 -8.30828 -3.35935 -40.0572
2 -7.01893 0.206255 -40.9632
6 -3.18907 -0.892246 -41.9792
1 -8.69611 2.1387 -43.4372
2 -5.5572 4.26547 -44.3432
3 -2.31707 1.03759 -45.4192
1 -5.77821 6.81468 -46.8172
2 -1.98868 6.69027 -47.7232
6 -1.84993 2.70841 -48.7392
1 -0.669098 8.88253 -50.1972
2 2.32356 6.55445 -51.1032
13 0.500511 2.21848 -52.1972
2 2.32356 -6.58146 -53.6632
10 0.095336 -3.27851 -52.6472
1 4.67971 -7.5794 -51.1892
2 5.73241 -3.9369 -50.2832
5 1.70891 -1.50059 -49.1892
1 8.22515 -3.35935 -47.8092
2 6.93579 0.206255 -46.9032
4 3.14213 -1.2565 -45.8952
1 8.61298 2.1387 -44.4292
2 5.47407 4.26547 -43.5232
5 1.91366 1.19176 -42.4292
1 5.69508 6.81468 -41.0492
2 1.90555 6.69027 -40.1432
5 0.831811 2.11083 -39.0492
1 0.585967 8.88253 -37.6692
2 -2.40669 6.55445 -36.7632
5 -0.583642 2.21848 -35.6692
1 -4.76284 7.55239 -34.2892
2 -5.81554 3.90989 -33.3832
3 -1.74439 1.82583 -32.3072
1 -8.30828 3.33234 -30.9092
2 -7.01893 -0.233265 -30.0032
5 -2.33182 0.160669 -28.9092
1 -8.69611 -2.16571 -27.5292
2 -5.5572 -4.29248 -26.6232
6 -3.10446 -1.15265 -25.6072
1 -5.77821 -6.84169 -24.1492
2 -1.98868 -6.71728 -23.2432
3 -1.26467 -2.20137 -22.1672
1 -0.669098 -8.90954 -20.7692
2 2.32356 -6.58146 -19.8632
4 -0.239912 -3.42549 -18.8552
1 4.67971 -7.5794 -17.3892
2 5.73241 -3.9369 -16.4832
3 1.66126 -1.85284 -15.4072
1 8.22515 -3.35935 -14.0092
2 6.93579 0.206255 -13.1032
5 2.24869 -0.18768 -12.0092
1 8.61298 2.1387 -10.6292
2 5.47407 4.26547 -9.72316
3 2.23394 1.03759 -8.64716
1 5.69508 6.81468 -7.24916
2 1.90555 6.69027 -6.34316
3 1.18154 2.17436 -5.26716
1 0.585967 8.88253 -3.86916
2 -2.40669 6.55445 -2.96316
3 -0.338045 2.47544 -1.88716
1 -4.76284 7.55239 -0.489156
2 -5.81554 3.90989 0.416844
6 -2.07144 2.54747 1.43284
1 -8.30828 3.33234 2.89084
2 -7.01893 -0.233265 3.79684
6 -3.18907 0.865236 4.81284
1 -8.69611 -2.16571 6.27084
2 -5.5572 -4.29248 7.17684
4 -3.34784 -0.879226 8.18484
1 -5.77821 -6.84169 9.65084
2 -1.98868 -6.71728 10.5568
6 -1.84993 -2.73542 11.5728
1 -0.669098 -8.90954 13.0308
2 2.32356 -6.58146 13.9368
5 0.500511 -2.24549 15.0308
1 4.67971 -7.5794 16.4108
2 5.73241 -3.9369 17.3168
6 1.98831 -2.57448 18.3328
1 8.22515 -3.35935 19.7908
2 6.93579 0.206255 20.6968
3 2.41718 -0.500662 21.7728
1 8.61298 2.1387 23.1708
2 5.47407 4.26547 24.0768
6 3.02133 1.12564 25.0928
1 5.69508 6.81468 26.5508
2 1.90555 6.69027 27.4568
6 1.7668 2.70841 28.4728
1 0.585967 8.88253 29.9308
2 -2.40669 6.55445 30.8368
4 0.156782 3.39847 31.8448
1 -4.76284 7.55239 33.3108
2 -5.81554 3.90989 34.2168
4 -1.88661 2.86343 35.2248
1 -8.30828 3.33234 36.6908
2 -7.01893 -0.233265 37.5968
4 -3.22526 1.22949 38.6048
1 -8.69611 -2.16571 40.0708
2 -5.5572 -4.29248 40.9768
5 -1.9968 -1.21877 42.0708
1 -5.77821 -6.84169 43.4508
2 -1.98868 -6.71728 44.3568
4 -2.20754 -2.65727 45.3648
1 -0.669098 -8.90954 46.8308
2 2.32356 -6.58146 47.7368
3 0.254915 -2.50245 48.8128
1 4.67971 -7.5794 50.2108
2 5.73241 -3.9369 51.1168
12 1.80348 -2.89044 52.1248
190
Atoms. Timestep: 2000
2 -2.62367 5.73275 52.5836
7 -1.74897 1.37245 52.0191
1 -0.952106 8.1101 49.9998
2 2.04595 6.15803 49.4745
4 -0.472916 3.08624 48.9608
1 4.29103 7.03906 46.4545
2 5.29834 3.13582 46.3219
3 1.06417 1.17494 45.5195
1 7.47314 2.45502 43.8752
2 6.14672 -1.36701 43.5176
6 2.40668 -0.113928 42.0514
1 8.06763 -3.25398 41.4348
2 5.37007 -5.1273 39.8246
3 2.02872 -2.20196 38.4815
1 5.98821 -8.24725 37.5519
2 2.45154 -7.87488 35.4228
3 1.54452 -3.27117 34.9196
1 1.2997 -9.71514 33.0487
2 -1.77045 -7.60992 32.1082
3 -0.265768 -3.21125 31.7762
1 -3.75202 -8.78891 29.0095
2 -5.28288 -5.11902 28.6195
5 -1.43717 -2.1749 28.3485
1 -7.47575 -4.40617 25.7857
2 -6.2588 -0.317068 25.587
5 -1.97613 -0.637625 24.8527
1 -7.78367 1.9641 23.1948
2 -4.87197 4.07519 23.2255
4 -2.53 0.732099 21.4654
1 -4.62624 7.31745 21.5257
2 -0.781355 7.05699 20.4301
5 0.43227 2.68382 18.9547
1 0.455336 9.52013 18.5616
2 3.29149 7.44249 16.9813
6 1.25597 4.14909 15.7404
1 5.45409 8.55289 14.4473
2 6.88836 4.96385 13.6937
5 2.9569 2.77814 12.2677
1 9.76102 4.4387 10.7735
2 8.53729 1.16128 10.0038
3 4.31993 1.73932 8.98102
1 10.3454 -1.06595 7.22619
2 6.90238 -2.72694 6.18246
5 3.6351 0.893569 5.07808
1 6.91169 -5.07939 3.63936
2 3.11957 -4.725 2.62164
5 2.30241 -0.353516 1.73758
1 1.28123 -6.74536 0.126668
2 -1.34962 -4.35227 -0.824786
4 1.71736 -1.12642 -1.74348
1 -4.23706 -4.88474 -3.11084
2 -4.69036 -1.07785 -4.04348
4 -0.438306 -0.366437 -4.95893
1 -7.25446 -0.200281 -6.10209
2 -5.62578 2.96611 -7.62469
4 -1.68587 1.37195 -8.27509
1 -7.49609 4.42494 -10.8589
2 -4.52074 6.32073 -12.2677
6 -1.91507 2.89331 -12.0289
1 -4.71363 7.92784 -15.1975
2 -0.936826 8.26498 -15.477
4 -0.93425 4.20063 -15.3603
1 -0.322123 9.89892 -18.3215
2 2.75026 8.12606 -19.1187
3 1.10631 3.82998 -19.2499
1 5.02077 9.2371 -21.6685
2 6.38845 5.63669 -22.3647
4 2.71344 4.06254 -22.4218
1 8.79767 4.7435 -24.9896
2 7.82653 1.04079 -25.0964
5 3.11698 1.15342 -25.4788
1 9.20098 -1.49022 -28.1305
2 6.12199 -3.26283 -27.5832
6 3.57084 -0.406594 -28.6987
1 5.69357 -6.27155 -28.7955
2 1.65947 -5.90741 -29.9474
4 2.28137 -2.33127 -31.7516
1 0.445404 -8.26415 -31.7576
2 -2.62966 -5.97155 -33.38
6 -0.519129 -2.81809 -34.7204
1 -4.70985 -7.54896 -36.4847
2 -5.44839 -3.98942 -37.8202
6 -1.56452 -2.47787 -38.432
1 -7.99926 -3.02653 -40.6698
2 -6.81541 0.439978 -41.2784
6 -2.7471 -0.987027 -41.8638
1 -8.32801 2.21712 -43.8538
2 -4.76557 3.66485 -44.9482
3 -1.37326 -0.0566071 -45.4391
1 -4.83539 6.00619 -47.4938
2 -1.14645 6.12619 -47.9135
6 -0.844394 2.08789 -48.4375
1 0.579541 7.71228 -50.8126
2 3.74024 5.53593 -50.667
13 2.21025 1.20222 -51.3469
2 4.58379 -7.90404 -52.4199
10 2.26285 -4.41463 -52.0283
1 6.21817 -8.66463 -49.7619
2 7.49527 -5.21842 -49.0206
5 3.05135 -2.26152 -48.6569
1 9.76642 -4.54575 -46.2143
2 8.29616 -0.635548 -45.8049
4 4.42045 -1.94497 -44.937
1 9.46771 1.33592 -43.0723
2 5.99125 3.51531 -42.6822
5 2.43366 0.848027 -42.0316
1 5.98445 6.28717 -40.4485
2 1.9837 6.64729 -40.258
5 1.23737 2.31369 -38.5467
1 0.497857 8.7993 -38.2364
2 -2.55752 6.74099 -37.2987
5 -0.972765 3.07998 -35.7296
1 -4.56267 8.15017 -34.7003
2 -5.66107 4.70978 -33.5952
3 -1.32405 2.41061 -32.1847
1 -8.22592 4.19872 -30.7275
2 -6.54455 0.302481 -30.0197
5 -1.88293 0.555518 -28.9233
1 -7.75007 -2.04933 -27.2807
2 -4.4384 -3.98467 -26.9477
6 -2.23865 -0.822338 -25.4095
1 -4.28299 -6.81167 -24.4482
2 -0.451013 -6.07011 -22.9119
3 -0.351347 -1.18571 -22.028
1 1.07252 -7.99226 -19.9322
2 4.25439 -5.09743 -19.579
4 1.57391 -2.01942 -18.7719
1 6.7624 -5.71119 -17.2828
2 7.69146 -1.71909 -16.8701
3 3.41558 0.242762 -15.5777
1 9.96817 -1.03434 -14.2765
2 8.27361 2.5182 -13.2392
5 3.51858 1.96605 -12.2877
1 9.788 4.61293 -11.2227
2 6.99664 6.63872 -10.2033
3 3.77328 3.44206 -8.93874
1 7.30168 9.23591 -7.81728
2 3.32343 9.08772 -6.5937
3 2.79275 4.78404 -5.56386
1 2.84776 11.1643 -3.69376
2 -0.179041 9.28002 -2.74854
3 1.86521 4.76942 -1.97994
1 -2.14281 9.84691 -0.131747
2 -3.58895 6.26327 -0.165971
6 -0.233946 4.62851 1.05969
1 -6.74843 5.41212 1.68831
2 -5.28369 1.57857 2.58938
6 -1.67357 2.80956 4.47331
1 -7.1523 -0.38841 4.29532
2 -4.00581 -2.98714 5.94334
4 -1.81247 0.410155 7.44243
1 -4.62138 -5.48234 7.85765
2 -0.889967 -5.14473 9.91668
6 -0.563128 -1.02347 11.139
1 0.273146 -7.4032 12.594
2 3.46783 -5.00449 12.8271
5 1.68226 -1.38313 14.665
1 6.1376 -6.28806 14.8087
2 7.20259 -2.70722 16.5315
6 3.42583 -1.83216 17.7963
1 9.72727 -2.35816 19.4018
2 7.85265 0.827828 20.928
3 3.33463 -0.211846 21.5182
1 9.53573 2.34423 23.8825
2 6.21654 4.2834 25.3679
6 3.32006 1.00648 25.1951
1 6.45332 5.92963 28.4177
2 2.62012 6.37768 28.6391
6 2.06193 2.0365 28.6934
1 0.820529 8.03522 30.9931
2 -2.05664 5.70273 31.4017
4 0.333685 2.60187 32.0164
1 -4.71933 6.35563 33.6736
2 -5.5404 2.66497 33.8261
4 -2.07116 1.64796 35.1305
1 -8.74773 2.03425 35.7615
2 -7.62471 -1.80996 37.2526
4 -3.53927 -0.183477 38.2895
1 -9.56671 -2.82785 39.6018
2 -6.59622 -5.35572 41.3658
5 -2.55379 -2.29569 42.0167
1 -7.09628 -7.91114 44.3257
2 -3.0034 -8.05301 45.0005
4 -2.91667 -3.57158 45.3445
1 -1.317 -9.67501 48.0511
2 1.70425 -7.00539 47.9666
3 -0.397676 -2.7963 49.0236
1 4.51399 -7.76474 50.0065
2 5.65928 -4.14513 50.21
12 2.01929 -3.14405 51.7696
190
Atoms. Timestep: 4000
2 -7.55699 7.14808 52.9699
7 -6.52828 2.74552 52.4074
1 -6.14116 8.93842 50.8079
2 -3.34556 7.01054 50.5635
4 -5.26176 3.38009 49.0391
1 -0.789516 8.17354 48.5739
2 1.19307 4.92799 48.2315
3 -2.03041 2.08842 46.566
1 4.32204 4.91377 46.4813
2 3.8601 0.941285 45.6464
6 0.144294 1.66381 43.637
1 6.33517 -0.826567 43.4374
2 3.37327 -2.98271 41.4537
3 0.0213653 -0.212203 40.1218
1 4.45791 -5.17586 38.7296
2 1.3356 -4.82046 36.5953
3 0.528514 -0.0932915 36.257
1 0.540906 -6.70542 33.4682
2 -2.82649 -4.73061 32.991
3 -0.879328 -0.134762 32.7354
1 -4.97549 -5.71016 30.2359
2 -6.07138 -1.96268 29.1624
5 -2.38582 0.718203 29.2177
1 -7.8248 -1.4926 26.6031
2 -6.6053 2.0072 26.1015
5 -1.92747 1.87795 25.6211
1 -7.94759 3.86557 23.3533
2 -4.96253 6.93857 23.398
4 -2.16002 3.96027 22.5887
1 -5.16891 9.72669 20.719
2 -1.65785 10.2553 20.3287
5 0.284811 6.07686 19.7679
1 -0.392758 12.516 17.834
2 3.31909 10.5141 17.5615
6 1.54999 7.02177 16.4979
1 5.51572 11.7737 15.5478
2 6.89587 8.41891 13.996
5 3.31967 5.83835 12.9164
1 9.33698 8.76961 11.4479
2 8.68509 5.36486 9.7753
3 3.70654 5.3477 9.27471
1 10.0984 4.4439 7.20075
2 7.34526 1.5714 6.46567
5 3.55413 3.97301 5.76897
1 8.27009 -0.122893 3.91207
2 4.7172 -1.00851 3.19663
5 2.85832 3.36224 2.26712
1 3.6972 -3.52549 0.899296
2 0.34858 -1.95533 0.300188
4 2.21147 1.41281 -0.766652
1 -2.00507 -3.4094 -2.13963
2 -3.84565 0.20531 -3.09546
4 -0.212315 1.52816 -3.94485
1 -6.27943 0.453154 -5.96679
2 -5.5647 4.01024 -6.92345
4 -1.62026 2.3721 -7.58344
1 -7.2929 5.61492 -10.0145
2 -4.38622 7.74099 -10.7231
6 -1.5547 4.80161 -10.9605
1 -4.60051 10.4862 -13.066
2 -1.2781 10.2901 -14.4054
4 -1.35397 6.46389 -14.7932
1 -0.325247 12.1207 -16.9432
2 2.44826 9.81741 -18.0132
3 0.779958 5.1972 -18.1241
1 4.21825 10.1882 -21.0832
2 6.08352 6.16287 -20.9829
4 2.55554 4.7334 -21.3677
1 8.4295 5.46108 -23.4675
2 7.57596 2.02483 -23.5735
5 3.195 1.29064 -24.1177
1 9.37565 0.11594 -25.875
2 6.89939 -2.20863 -26.3228
6 4.17497 0.422307 -27.3961
1 7.47699 -4.63834 -28.2581
2 3.92447 -5.41432 -29.595
4 3.72579 -1.8274 -30.6314
1 3.79863 -7.7436 -31.6222
2 0.0088892 -6.50353 -32.7531
6 1.90689 -2.52433 -34.1675
1 -1.45085 -8.19995 -35.1464
2 -3.43559 -5.50543 -36.4613
6 -0.0925549 -2.80494 -37.5458
1 -5.79142 -6.03909 -39.1951
2 -5.56416 -2.42505 -40.4453
6 -1.56219 -2.8109 -41.2898
1 -7.71777 -1.09336 -43.0444
2 -5.46536 1.48451 -44.8757
3 -1.38733 -1.04896 -44.9329
1 -6.95401 3.04451 -48.3138
2 -3.55904 3.66641 -49.7206
6 -1.96773 0.0193282 -48.513
1 -2.83436 4.42047 -53.3185
2 0.342165 3.16117 -53.1373
13 0.246629 -1.27054 -51.793
2 4.66672 -8.26211 -47.5051
10 1.51272 -5.88927 -48.7996
1 7.55937 -7.90434 -49.1063
2 7.66466 -4.16193 -48.9508
5 3.05305 -2.18793 -47.7444
1 9.72349 -2.53217 -47.1214
2 7.68093 0.779477 -46.1809
4 4.53977 -1.62462 -44.532
1 9.18746 3.58942 -44.6102
2 5.46061 4.82567 -43.3637
5 2.51645 0.815273 -41.6631
1 5.10512 7.71453 -41.3071
2 1.24805 6.65461 -39.9739
5 1.55802 2.51499 -38.3492
1 -0.776804 8.80881 -37.8018
2 -2.95298 6.21451 -36.4252
5 -0.0159961 2.70642 -35.0967
1 -5.59569 6.5785 -33.5548
2 -5.74751 2.81741 -32.6372
3 -0.918988 1.77579 -31.2977
1 -7.9126 1.83223 -30.1498
2 -5.61397 -1.03456 -28.6773
5 -1.40722 0.639337 -27.5411
1 -7.06387 -2.74559 -25.9514
2 -3.82787 -4.6316 -24.8677
6 -1.76252 -1.17156 -24.5222
1 -3.66848 -6.46955 -21.6954
2 0.362532 -5.42686 -21.1606
3 0.421386 -0.928751 -21.171
1 1.76521 -6.56356 -17.956
2 4.3564 -3.95854 -17.6715
4 1.46609 -0.645962 -17.4593
1 6.38556 -4.19446 -15.1397
2 7.1415 -0.109112 -15.2233
3 2.71389 2.07512 -14.3406
1 9.70181 1.3317 -12.7049
2 8.23925 4.56935 -12.4491
5 3.71589 3.96421 -11.2954
1 9.46175 6.64511 -10.3283
2 6.5834 8.52143 -9.91399
3 3.68539 5.01263 -8.05079
1 6.65136 11.5881 -7.51014
2 2.74815 11.2757 -6.41574
3 2.65294 6.75348 -4.9528
1 0.632673 13.6164 -4.31206
2 -1.80842 10.8217 -3.34163
3 0.857272 7.08159 -1.71364
1 -5.18082 11.3676 -1.07343
2 -5.40846 7.78976 0.830293
6 -1.08297 7.13364 1.37325
1 -7.39872 7.35195 3.83118
2 -5.90521 3.4085 4.63314
6 -1.84037 4.78734 5.70861
1 -7.38885 1.47352 6.86481
2 -4.13266 -0.574249 8.43302
4 -1.8351 3.27884 9.1346
1 -4.16501 -3.00677 11.2581
2 -0.0731446 -2.63485 11.9567
6 0.0880742 1.68741 12.5426
1 1.81839 -4.69538 14.2006
2 4.79262 -2.17717 14.7135
5 2.67517 1.73534 15.8772
1 7.50662 -3.16241 17.219
2 7.99311 0.268585 18.6725
6 3.82607 1.54404 19.2226
1 9.93252 0.836995 21.436
2 8.05942 4.17234 22.4539
3 3.60054 2.8594 23.0726
1 8.9773 5.69313 25.6886
2 5.5208 7.41208 26.3774
6 3.18147 3.81917 26.7677
1 5.24701 9.90462 28.9091
2 1.62158 9.50776 29.3932
6 1.0467 5.27955 29.814
1 -0.022917 11.4911 32.0639
2 -2.96567 9.46567 32.1233
4 -0.366792 5.79233 33.3452
1 -5.80614 9.89726 34.1093
2 -6.50809 5.78039 34.3199
4 -3.03465 4.90129 36.3191
1 -9.3176 4.78826 35.9095
2 -8.22422 0.956843 36.1673
4 -5.16554 2.11773 38.764
1 -10.4612 -1.62124 37.593
2 -7.44764 -3.60397 39.6912
5 -4.73092 -0.555106 42.2157
1 -8.04046 -6.63112 41.652
2 -4.35659 -6.42589 43.9736
4 -5.35464 -2.60128 44.9586
1 -4.16903 -8.67362 47.0555
2 -1.85803 -6.22836 49.2558
3 -4.4093 -2.3907 49.5647
1 -0.568568 -7.28043 52.6672
2 0.719679 -3.62512 53.3579
12 -3.40142 -2.10794 53.2275
190
Atoms. Timestep: 6000
2 -8.9904 5.94735 51.6415
7 -7.30021 1.52949 50.2983
1 -6.35805 8.63206 51.534
2 -2.78708 6.24537 51.3238
4 -4.13357 3.52059 49.0727
1 0.729907 7.65276 50.183
2 2.26128 4.61204 49.0526
3 -0.911373 2.96836 46.4631
1 5.63102 4.80572 47.0834
2 5.07319 1.70249 45.159
6 1.49434 2.89347 43.6317
1 7.42833 0.79932 42.3815
2 5.25574 -1.18739 40.7234
3 1.95619 1.72287 39.8271
1 6.30269 -2.80456 37.9676
2 2.57967 -2.37965 36.4656
3 2.01981 2.2478 36.0102
1 2.05065 -3.9175 33.6038
2 -1.00958 -2.02113 33.2866
3 0.343176 2.22606 32.787
1 -3.57785 -2.94878 30.4785
2 -5.07142 1.04619 30.3277
5 -1.02516 3.94692 29.3285
1 -8.02789 1.75764 27.9771
2 -6.7954 5.60613 27.4016
5 -1.882 5.56842 25.846
1 -8.62075 7.28487 24.5741
2 -5.26045 9.65277 23.1292
4 -2.57108 6.68942 22.3801
1 -5.59942 12.0813 20.8179
2 -1.83165 12.2489 19.5647
5 -0.681849 8.09009 18.8608
1 -1.01794 14.4287 16.7109
2 1.98565 12.3145 15.8784
6 -0.238047 8.51066 15.2084
1 4.39171 12.9233 13.4246
2 5.75817 9.05818 13.0103
5 2.01433 6.38601 12.0448
1 8.32533 8.38829 10.6301
2 7.21961 5.32192 9.52872
3 2.31144 5.66922 8.62388
1 8.84821 3.79689 6.85822
2 6.02497 1.2397 6.83802
5 1.95159 3.54124 5.65218
1 6.39477 -1.53973 4.74336
2 2.39691 -2.02521 4.04425
5 0.626798 2.24195 2.36813
1 1.3038 -4.95848 2.24422
2 -1.84951 -3.37314 0.844284
4 0.00346379 -0.26588 -0.183875
1 -3.95786 -5.13804 -1.39246
2 -5.07796 -1.89877 -3.27457
4 -1.04037 -0.366102 -3.9544
1 -6.89854 -2.11664 -6.34107
2 -6.12367 1.23348 -6.99608
4 -2.4873 0.597065 -7.67329
1 -7.71284 3.05793 -9.32601
2 -4.80726 5.72399 -10.265
6 -1.75249 2.95135 -10.8938
1 -5.38652 8.13945 -12.7913
2 -1.67186 9.15879 -13.5376
4 -1.27782 5.12713 -14.6157
1 -0.803344 11.1829 -15.8687
2 2.87106 9.33002 -16.802
3 1.894 4.84613 -17.2415
1 4.64155 10.7676 -19.5903
2 7.02324 7.23584 -20.5854
4 3.36195 4.81568 -21.2135
1 9.26824 7.55342 -22.8881
2 9.24916 3.90937 -24.0491
5 4.84305 2.61099 -24.8397
1 11.2559 2.64141 -27.0927
2 8.8486 -0.257004 -27.5034
6 5.39788 1.73652 -28.3298
1 9.6054 -3.33199 -29.8886
2 6.2653 -4.56781 -29.8897
4 4.75372 -0.866238 -30.9351
1 5.43405 -7.09738 -31.8414
2 1.92794 -6.34963 -32.3633
6 2.52874 -2.68868 -33.8506
1 0.0786119 -8.73112 -34.4403
2 -2.69417 -6.11901 -35.4654
6 -0.0381323 -2.82391 -36.8776
1 -4.97487 -7.26515 -37.682
2 -5.84554 -3.26564 -38.6884
6 -1.99584 -2.38158 -40.2169
1 -8.27675 -2.1305 -41.2489
2 -5.76729 0.745308 -43.2029
3 -1.89882 -1.16947 -44.0566
1 -6.8137 2.38725 -46.0491
2 -3.67861 2.89483 -47.6358
6 -2.13271 -0.714894 -47.5767
1 -3.75343 4.11991 -50.6806
2 -0.156342 2.44795 -51.6329
13 0.27769 -2.32025 -50.7924
2 6.51412 -8.26169 -48.2016
10 2.63652 -6.61257 -48.3294
1 8.9949 -6.87301 -45.8514
2 8.44152 -3.30021 -46.6538
5 3.10705 -2.59127 -46.7515
1 10.1614 -0.557078 -45.5614
2 6.78356 2.20484 -45.4392
4 4.10309 -0.790833 -43.6361
1 6.96131 5.74155 -43.7853
2 3.34419 6.1853 -43.074
5 1.35124 1.70872 -41.387
1 1.84943 9.03749 -41.6502
2 -1.57134 7.01593 -39.848
5 -0.473177 2.71229 -38.1398
1 -3.18743 8.42959 -37.5613
2 -4.14119 5.01605 -35.4796
5 -0.448182 1.88508 -34.3629
1 -6.09786 5.49457 -32.2439
2 -5.58469 2.06597 -31.247
3 -0.856374 1.25269 -30.7359
1 -7.59644 0.341956 -28.6432
2 -4.47935 -1.58346 -27.4457
5 -0.186758 1.06157 -27.1029
1 -5.04479 -3.30743 -24.5791
2 -1.38816 -4.35105 -24.1252
6 0.3431 -0.650389 -23.8491
1 -1.15166 -6.21093 -21.1267
2 2.40278 -5.40993 -20.5229
3 2.25041 -0.897864 -20.2775
1 3.88192 -6.78133 -17.5543
2 6.45775 -3.90758 -17.0657
4 3.08643 -0.963304 -16.7186
1 8.75931 -4.39063 -14.2493
2 9.33695 -0.513939 -13.2181
3 4.79444 1.07379 -13.3652
1 10.8786 0.226592 -10.3693
2 8.89769 3.95765 -9.84828
5 3.89312 2.96514 -10.0606
1 9.59165 6.25531 -7.3216
2 5.67738 7.80339 -7.24735
3 2.69887 3.80866 -6.72718
1 4.84632 10.5298 -5.37373
2 1.13034 9.63613 -5.2959
3 0.902459 5.2536 -3.92109
1 -0.771984 11.7338 -3.02437
2 -3.67101 9.24404 -2.78937
3 -1.28205 5.52169 -0.94755
1 -6.52739 10.3591 -0.557914
2 -6.90986 7.01306 0.695063
6 -2.76313 6.38605 2.25242
1 -9.22279 6.59245 3.64283
2 -7.44978 3.41516 5.7996
6 -3.81336 4.81336 5.77982
1 -9.01191 1.93089 9.13679
2 -5.82292 0.0413863 9.80585
4 -3.40882 4.23999 9.49799
1 -5.32739 -1.66866 12.6658
2 -1.6562 -1.71918 12.3916
6 -1.48603 1.9427 12.395
1 0.554675 -3.84038 14.966
2 3.34628 -1.13369 15.1703
5 1.04986 3.20544 15.725
1 5.66291 -1.60692 17.675
2 6.58403 2.13547 18.4248
6 2.57818 3.42811 18.975
1 9.27601 3.17979 20.792
2 7.54036 6.94756 21.4341
3 3.29404 5.9463 22.3022
1 8.83504 8.83049 24.0109
2 5.69832 10.9477 24.8647
6 3.37782 7.57823 25.7102
1 5.48332 13.2708 27.2906
2 1.95067 12.4252 28.665
6 2.20978 8.35641 29.5186
1 0.545323 14.4352 31.3195
2 -2.2791 11.6627 32.4534
4 0.644869 8.35297 32.8202
1 -4.3115 11.9034 35.0626
2 -5.2711 8.47782 34.8705
4 -1.58615 7.10872 36.0838
1 -7.89628 7.3813 36.4811
2 -6.8926 3.66721 36.6835
4 -3.17981 4.63676 38.6911
1 -9.28085 1.38834 38.255
2 -6.3904 -1.19326 39.1662
5 -3.3426 1.35818 41.6369
1 -6.96987 -4.36562 40.2823
2 -3.68985 -4.8656 42.6999
4 -4.46498 -1.18862 44.0669
1 -3.0092 -7.93454 45.1119
2 -0.73125 -6.03199 47.4589
3 -3.25837 -2.0482 47.8685
1 0.485438 -7.15714 50.5218
2 -0.0412523 -3.56279 52.3484
12 -4.04663 -3.30064 51.3106
190
Atoms. Timestep: 8000
2 -9.76883 2.22751 53.4045
7 -7.24683 -0.819694 50.909
1 -8.50094 5.98389 52.7747
2 -4.46332 4.95689 52.6959
4 -5.48615 2.26986 49.6956
1 -1.63348 7.73642 52.3768
2 0.883509 4.82061 50.7215
3 -1.66 2.74486 47.5338
1 3.91903 5.81766 49.3596
2 3.81815 2.82262 47.1033
6 0.945737 4.09732 44.8249
1 6.95073 1.9604 45.156
2 4.84224 -0.0967655 42.7082
3 1.96896 3.21907 40.738
1 5.89524 -2.40705 40.3056
2 2.52819 -2.21285 38.3516
3 2.2406 2.27032 37.0516
1 1.70488 -4.09246 36.0234
2 -0.972821 -2.08044 34.5553
3 1.12705 1.72793 33.5478
1 -2.61911 -3.45413 31.1215
2 -3.55471 0.106275 30.1356
5 0.731242 2.60587 29.4261
1 -5.08857 0.353116 27.2042
2 -4.10354 3.63133 26.3467
5 0.811568 4.28118 26.1151
1 -5.58639 4.95313 23.6004
2 -2.73704 7.5259 22.9328
4 0.486758 4.31853 22.1273
1 -3.24528 9.73981 20.4661
2 0.897351 10.3245 19.7742
5 2.92387 6.0609 19.047
1 1.50291 12.7599 16.5843
2 4.80184 10.8644 16.174
6 3.10664 7.06816 15.6323
1 7.0636 12.0928 13.5132
2 8.27822 8.71375 11.8877
5 4.55805 5.68649 11.914
1 10.3294 8.66165 9.02724
2 10.1083 4.66603 8.66845
3 5.64547 3.99459 8.54072
1 11.8516 3.07923 6.55061
2 9.19112 0.277452 5.65706
5 4.75851 2.38994 5.23738
1 9.68252 -1.7665 2.96942
2 6.02643 -2.64172 2.52178
5 3.86814 1.05481 2.03737
1 4.87971 -5.26374 0.0262957
2 1.16827 -3.46602 -0.48557
4 2.96205 0.741503 -1.57767
1 -1.13895 -4.85067 -3.31662
2 -2.98125 -1.90473 -3.88129
4 0.487348 0.978915 -4.55564
1 -5.36778 -2.01198 -6.46668
2 -5.12021 2.09294 -7.45636
4 -1.36199 1.84434 -7.89798
1 -7.14078 3.20708 -9.73999
2 -4.99123 6.09871 -10.4191
6 -2.09978 4.10087 -11.3789
1 -5.93414 8.97906 -12.8513
2 -2.5902 9.8127 -14.1096
4 -1.53739 6.0927 -14.4772
1 -2.28266 11.7616 -16.9828
2 1.76571 10.7972 -17.6123
3 0.802147 6.40957 -17.9934
1 3.6888 12.1514 -20.3563
2 5.36747 8.65687 -20.921
4 1.55856 6.60343 -21.4945
1 7.78614 8.58296 -23.5792
2 7.65133 4.80284 -24.6576
5 3.23057 3.41705 -25.2952
1 9.5999 3.66553 -27.6093
2 7.05061 0.282604 -28.2655
6 3.81325 2.1144 -29.0791
1 7.80856 -2.02043 -30.5322
2 4.2713 -3.00872 -30.5282
4 3.14055 0.142092 -32.4048
1 3.36677 -6.56951 -31.8089
2 -0.215764 -5.8097 -32.9656
6 0.906993 -2.10012 -35.2417
1 -1.55389 -8.58034 -35.272
2 -3.78152 -5.78394 -37.2491
6 -1.09209 -2.82674 -38.5768
1 -5.96113 -6.68628 -39.3884
2 -6.37735 -3.35574 -40.7122
6 -2.7493 -3.04933 -42.0435
1 -9.12966 -2.57025 -42.8111
2 -7.30808 0.643267 -43.8255
3 -3.60084 -1.17609 -45.5464
1 -8.57719 3.61145 -46.0411
2 -5.19802 4.92272 -46.6099
6 -3.56588 1.54763 -48.0493
1 -4.84657 8.09255 -48.7345
2 -1.12691 6.92796 -50.269
13 -1.70138 2.07655 -51.8928
2 2.90969 -4.55407 -55.1763
10 -0.0117708 -3.02831 -53.005
1 5.78622 -5.4879 -53.1959
2 5.77166 -1.99494 -51.154
5 1.00249 -1.18783 -49.431
1 8.15361 -1.19823 -48.3542
2 5.55972 1.67118 -47.5126
4 2.46143 -1.20681 -45.9982
1 6.6521 4.26125 -45.1295
2 3.22372 5.49437 -44.0398
5 0.926141 1.12283 -42.2269
1 2.98875 8.29686 -41.8037
2 -0.406714 7.37795 -40.3447
5 0.287974 2.72502 -39.0628
1 -2.27541 9.43387 -37.9473
2 -4.4952 6.60481 -36.8462
5 -1.54338 2.83283 -36.0524
1 -6.76026 7.06498 -34.3828
2 -6.48353 2.99664 -32.8273
3 -2.26772 2.34471 -32.3987
1 -8.26178 1.75837 -30.7529
2 -5.39994 -0.615731 -29.5006
5 -1.58973 1.64355 -28.7908
1 -6.12863 -2.84206 -26.9245
2 -2.28257 -3.34407 -25.6894
6 -1.28677 0.232587 -25.2294
1 -1.67223 -5.38891 -22.8016
2 1.52229 -3.43044 -21.7109
3 0.618063 0.754179 -21.0817
1 3.51838 -4.61646 -19.4053
2 5.77666 -1.86784 -19.073
4 1.97887 0.530742 -17.4403
1 8.09459 -1.52614 -16.8754
2 7.97131 2.53763 -16.2672
3 3.89486 3.08954 -14.6401
1 10.0877 4.06175 -14.5058
2 7.30762 6.82313 -12.8343
5 3.37413 5.11823 -11.4719
1 8.24588 9.43148 -10.4158
2 4.44647 10.2209 -9.45266
3 2.63436 6.37832 -8.14905
1 4.0933 12.5897 -6.95328
2 1.01881 11.2896 -5.36502
3 1.95468 7.03286 -4.48729
1 -0.301452 12.5922 -2.65353
2 -2.3321 9.37679 -1.43654
3 1.00863 6.08137 -0.958487
1 -4.16975 9.49532 1.52168
2 -4.06282 5.47325 2.48525
6 -0.290973 4.7911 2.25519
1 -5.58837 4.28239 5.10951
2 -4.01455 1.31555 5.32492
6 -0.562979 3.03982 5.74617
1 -5.13186 -0.85151 7.76002
2 -1.30066 -2.10626 8.86592
4 0.105273 1.86745 9.24651
1 -0.919236 -4.01574 11.2627
2 2.69233 -3.00881 11.8205
6 2.13588 0.758293 12.5649
1 4.53484 -4.7891 14.013
2 7.11106 -1.78946 14.9276
5 4.61848 1.73653 15.7234
1 9.72762 -2.34994 17.731
2 10.3753 1.3167 18.777
6 6.5391 1.93195 19.1135
1 12.2973 2.23879 21.9686
2 10.5708 5.09383 22.6257
3 6.31453 3.9899 22.7239
1 11.673 7.16198 25.3363
2 8.6149 8.6544 24.9616
6 6.40719 5.80075 26.1753
1 8.0602 11.6024 26.85
2 4.1278 11.2719 28.06
6 4.32441 7.34859 28.9932
1 2.94241 13.2109 30.3847
2 -0.004173 10.5772 31.0754
4 2.32746 7.71421 32.5897
1 -2.7238 11.4581 33.0999
2 -3.74656 7.93956 33.8951
4 -0.700609 7.51335 36.0742
1 -6.52361 7.28091 35.3524
2 -5.77449 3.98866 35.9506
4 -2.99988 5.10495 38.523
1 -8.21834 1.59917 36.4388
2 -5.14849 -0.920748 37.8
5 -2.82496 1.57507 41.2301
1 -5.90216 -3.84573 38.5875
2 -3.01756 -4.47792 40.7248
4 -4.07444 -1.19351 43.5252
1 -2.71101 -7.69707 42.316
2 -0.915763 -6.40257 45.7602
3 -4.17085 -3.09409 47.3242
1 0.0984925 -9.04979 48.2031
2 -0.0627742 -6.86702 51.1154
12 -3.7209 -5.56559 49.8794
190
Atoms. Timestep: 10000
2 -9.27897 7.99714 52.554
7 -6.51227 3.85219 52.0581
1 -7.73292 10.5533 51.4883
2 -4.13747 9.0532 50.8061
4 -5.85184 5.68359 48.8481
1 -2.00374 10.9836 48.6822
2 0.467198 7.68806 47.8336
3 -2.56606 4.66053 46.1128
1 2.82247 8.13732 45.8821
2 2.63197 4.18937 44.5729
6 -1.13022 4.20419 42.6417
1 5.4175 3.07828 42.9681
2 3.47104 0.0542741 41.6292
3 -0.434104 1.93739 39.4617
1 5.08606 -1.77483 39.442
2 1.74754 -2.86288 37.0733
3 -0.167541 1.55718 35.6381
1 1.76027 -5.43053 34.0566
2 -1.1471 -4.12651 32.6204
3 -0.484977 0.201406 32.1867
1 -2.93958 -5.64376 29.5055
2 -5.06756 -2.72697 29.0258
5 -1.89225 0.983758 28.794
1 -7.43085 -2.2318 26.7579
2 -6.37207 1.80253 26.1739
5 -1.75896 2.32791 25.3718
1 -8.21214 3.50267 23.9335
2 -5.41345 6.32667 22.9114
4 -2.53288 3.47985 22.164
1 -6.13783 9.0355 20.6691
2 -2.42284 9.32194 19.5407
5 -0.616953 5.43882 18.7952
1 -1.61039 11.8391 16.8312
2 1.40748 9.7939 15.472
6 -0.14933 6.05546 15.0919
1 3.9489 11.3027 12.9166
2 5.70391 8.20003 12.352
5 2.25197 4.82953 11.7335
1 8.64007 8.07472 9.47554
2 8.07214 4.35559 9.05652
3 3.26132 3.95218 8.42519
1 10.2509 2.36355 6.86189
2 7.46195 -0.764612 5.97368
5 3.18718 1.78713 4.85963
1 7.91189 -3.07475 3.71619
2 4.22078 -3.7027 2.89557
5 2.48929 0.661235 1.27558
1 3.48629 -6.2061 0.162888
2 -0.32431 -4.5724 -0.74633
4 0.869118 -0.993405 -1.51834
1 -2.89564 -5.87351 -2.8028
2 -4.70306 -2.34219 -3.41891
4 -0.981486 -0.189839 -4.92792
1 -7.56596 -2.32052 -5.61415
2 -6.77864 0.587719 -8.10173
4 -2.60568 -0.346476 -8.68707
1 -8.74524 1.16328 -10.6845
2 -6.36602 3.55351 -12.0246
6 -3.32001 1.12849 -12.5409
1 -7.21914 5.92155 -15.1508
2 -3.19884 6.08045 -16.9746
4 -2.78859 1.76569 -16.3897
1 -2.46191 7.25026 -20.2831
2 0.692552 5.39814 -20.0394
3 -0.0802058 1.36963 -19.7458
1 3.61303 6.65372 -22.0779
2 5.61399 3.67877 -21.4769
4 2.46339 1.41715 -22.3786
1 8.59005 3.67823 -23.1692
2 8.08958 0.0888831 -24.5924
5 3.7686 -1.45262 -25.25
1 10.4392 -1.26456 -26.7857
2 8.14881 -4.09574 -28.4985
6 4.35247 -1.81579 -29.0615
1 9.01001 -5.96915 -31.6104
2 5.6334 -7.0435 -32.0254
4 3.70637 -3.08191 -32.6218
1 4.66037 -9.75094 -34.26
2 0.877316 -8.45965 -34.6862
6 1.35086 -4.62373 -35.5698
1 -1.18943 -10.1536 -37.0815
2 -3.47105 -7.14378 -37.4064
6 -0.741048 -3.95461 -38.7439
1 -6.4209 -7.73556 -39.2615
2 -6.95924 -3.7194 -40.8535
6 -2.97285 -3.01684 -41.8996
1 -9.22297 -3.11144 -43.8282
2 -8.14323 0.804587 -44.1661
3 -3.53189 -0.143683 -45.1612
1 -9.79017 2.74033 -46.8702
2 -6.0619 4.38741 -48.1989
6 -4.23541 1.04249 -48.6459
1 -6.05751 6.80291 -50.8105
2 -2.52824 5.91178 -51.9181
13 -2.24222 1.56329 -52.6067
2 3.22677 -5.42582 -53.2843
10 0.0341912 -3.45733 -52.0012
1 6.38766 -4.02532 -52.5654
2 5.06966 -0.460005 -51.4245
5 0.79272 -0.583155 -49.2139
1 7.42186 1.45869 -49.6234
2 4.62836 4.09134 -47.8251
4 2.26318 0.793672 -46.2645
1 5.5873 6.49787 -45.6481
2 2.18778 6.21417 -43.5569
5 0.410512 1.52515 -42.3652
1 1.9221 7.94685 -40.6533
2 -1.05513 6.12476 -39.6284
5 0.268031 1.4969 -38.6555
1 -3.51987 7.20789 -36.7527
2 -5.0519 3.71723 -36.1731
5 -1.0158 0.492819 -35.3645
1 -6.8922 3.53361 -33.5403
2 -6.28964 -0.494563 -32.9226
3 -1.57237 -0.599193 -31.9778
1 -8.06723 -2.09424 -30.3391
2 -5.59148 -5.05469 -29.5294
5 -0.844315 -2.97571 -28.9469
1 -6.22164 -7.08293 -27.0244
2 -2.49734 -8.30455 -25.9776
6 -1.01514 -4.40511 -25.4775
1 -2.22429 -10.4509 -22.9972
2 1.44417 -8.97521 -21.8678
3 1.17871 -4.29338 -22.1575
1 2.88219 -10.0285 -18.5978
2 4.73647 -6.62474 -18.3481
4 1.36304 -4.14766 -18.3024
1 7.01063 -5.9978 -16.0484
2 6.91025 -1.93221 -15.8625
3 2.14247 -1.35795 -15.2544
1 8.86649 -0.116241 -13.6034
2 6.85577 2.91631 -13.6953
5 2.22239 1.22932 -12.4643
1 7.9839 5.6501 -11.2676
2 4.33373 7.28857 -10.597
3 2.09138 3.26941 -8.80947
1 4.26581 10.6079 -8.3709
2 1.25909 9.75167 -6.77589