1079
Atoms. Timestep: 0
2 -1.98868 6.69027 53.6768
7 -1.26467 2.17436 52.6008
1 -0.669098 8.88253 51.2028
2 2.32356 6.55445 50.2968
4 -0.239912 3.39847 49.2888
1 4.67971 7.55239 47.8228
2 5.73241 3.90989 46.9168
3 1.66126 1.82583 45.8408
1 8.22515 3.33234 44.4428
2 6.93579 -0.233265 43.5368
6 3.10594 0.865236 42.5208
1 8.61298 -2.16571 41.0628
2 5.47407 -4.29248 40.1568
3 2.23394 -1.0646 39.0808
1 5.69508 -6.84169 37.6828
2 1.90555 -6.71728 36.7768
3 1.18154 -2.20137 35.7008
1 0.585967 -8.90954 34.3028
2 -2.40669 -6.58146 33.3968
3 -0.338045 -2.50245 32.3208
1 -4.76284 -7.5794 30.9228
2 -5.81554 -3.9369 30.0168
5 -1.79204 -1.50059 28.9228
1 -8.30828 -3.35935 27.5428
2 -7.01893 0.206255 26.6368
5 -2.33182 -0.18768 25.5428
1 -8.69611 2.1387 24.1628
2 -5.5572 4.26547 23.2568
4 -3.34784 0.852215 22.2488
1 -5.77821 6.81468 20.7828
2 -1.98868 6.69027 19.8768
5 -0.914942 2.11083 18.7828
1 -0.669098 8.88253 17.4028
2 2.32356 6.55445 16.4968
6 0.095336 3.2515 15.4808
1 4.67971 7.55239 14.0228
2 5.73241 3.90989 13.1168
5 1.70891 1.47358 12.0228
1 8.22515 3.33234 10.6428
2 6.93579 -0.233265 9.73684
3 2.41718 0.473651 8.66084
1 8.61298 -2.16571 7.26284
2 5.47407 -4.29248 6.35684
5 1.91366 -1.21877 5.26284
1 5.69508 -6.84169 3.88284
2 1.90555 -6.71728 2.97684
5 0.831811 -2.13784 1.88284
1 0.585967 -8.90954 0.502844
2 -2.40669 -6.58146 -0.403156
4 0.156782 -3.42549 -1.41116
1 -4.76284 -7.5794 -2.87716
2 -5.81554 -3.9369 -3.78316
4 -1.88661 -2.89044 -4.79116
1 -8.30828 -3.35935 -6.25716
2 -7.01893 0.206255 -7.16316
4 -3.22526 -1.2565 -8.17116
1 -8.69611 2.1387 -9.63716
2 -5.5572 4.26547 -10.5432
6 -3.10446 1.12564 -11.5592
1 -5.77821 6.81468 -13.0172
2 -1.98868 6.69027 -13.9232
4 -2.20754 2.63026 -14.9312
1 -0.669098 8.88253 -16.3972
2 2.32356 6.55445 -17.3032
3 0.254915 2.47544 -18.3792
1 4.67971 7.55239 -19.7772
2 5.73241 3.90989 -20.6832
4 1.80348 2.86343 -21.6912
1 8.22515 3.33234 -23.1572
2 6.93579 -0.233265 -24.0632
5 2.24869 0.160669 -25.1572
1 8.61298 -2.16571 -26.5372
2 5.47407 -4.29248 -27.4432
6 3.02133 -1.15265 -28.4592
1 5.69508 -6.84169 -29.9172
2 1.90555 -6.71728 -30.8232
4 2.12441 -2.65727 -31.8312
1 0.585967 -8.90954 -33.2972
2 -2.40669 -6.58146 -34.2032
6 -0.178467 -3.27851 -35.2192
1 -4.76284 -7.5794 -36.6772
2 -5.81554 -3.9369 -37.5832
6 -2.07144 -2.57448 -38.5992
1 -8.30828 -3.35935 -40.0572
2 -7.01893 0.206255 -40.9632
6 -3.18907 -0.892246 -41.9792
1 -8.69611 2.1387 -43.4372
2 -5.5572 4.26547 -44.3432
3 -2.31707 1.03759 -45.4192
1 -5.77821 6.81468 -46.8172
2 -1.98868 6.69027 -47.7232
6 -1.84993 2.70841 -48.7392
1 -0.669098 8.88253 -50.1972
2 2.32356 6.55445 -51.1032
13 0.500511 2.21848 -52.1972
2 2.32356 -6.58146 -53.6632
10 0.095336 -3.27851 -52.6472
1 4.67971 -7.5794 -51.1892
2 5.73241 -3.9369 -50.2832
5 1.70891 -1.50059 -49.1892
1 8.22515 -3.35935 -47.8092
2 6.93579 0.206255 -46.9032
4 3.14213 -1.2565 -45.8952
1 8.61298 2.1387 -44.4292
2 5.47407 4.26547 -43.5232
5 1.91366 1.19176 -42.4292
1 5.69508 6.81468 -41.0492
2 1.90555 6.69027 -40.1432
5 0.831811 2.11083 -39.0492
1 0.585967 8.88253 -37.6692
2 -2.40669 6.55445 -36.7632
5 -0.583642 2.21848 -35.6692
1 -4.76284 7.55239 -34.2892
2 -5.81554 3.90989 -33.3832
3 -1.74439 1.82583 -32.3072
1 -8.30828 3.33234 -30.9092
2 -7.01893 -0.233265 -30.0032
5 -2.33182 0.160669 -28.9092
1 -8.69611 -2.16571 -27.5292
2 -5.5572 -4.29248 -26.6232
6 -3.10446 -1.15265 -25.6072
1 -5.77821 -6.84169 -24.1492
2 -1.98868 -6.71728 -23.2432
3 -1.26467 -2.20137 -22.1672
1 -0.669098 -8.90954 -20.7692
2 2.32356 -6.58146 -19.8632
4 -0.239912 -3.42549 -18.8552
1 4.67971 -7.5794 -17.3892
2 5.73241 -3.9369 -16.4832
3 1.66126 -1.85284 -15.4072
1 8.22515 -3.35935 -14.0092
2 6.93579 0.206255 -13.1032
5 2.24869 -0.18768 -12.0092
1 8.61298 2.1387 -10.6292
2 5.47407 4.26547 -9.72316
3 2.23394 1.03759 -8.64716
1 5.69508 6.81468 -7.24916
2 1.90555 6.69027 -6.34316
3 1.18154 2.17436 -5.26716
1 0.585967 8.88253 -3.86916
2 -2.40669 6.55445 -2.96316
3 -0.338045 2.47544 -1.88716
1 -4.76284 7.55239 -0.489156
2 -5.81554 3.90989 0.416844
6 -2.07144 2.54747 1.43284
1 -8.30828 3.33234 2.89084
2 -7.01893 -0.233265 3.79684
6 -3.18907 0.865236 4.81284
1 -8.69611 -2.16571 6.27084
2 -5.5572 -4.29248 7.17684
4 -3.34784 -0.879226 8.18484
1 -5.77821 -6.84169 9.65084
2 -1.98868 -6.71728 10.5568
6 -1.84993 -2.73542 11.5728
1 -0.669098 -8.90954 13.0308
2 2.32356 -6.58146 13.9368
5 0.500511 -2.24549 15.0308
1 4.67971 -7.5794 16.4108
2 5.73241 -3.9369 17.3168
6 1.98831 -2.57448 18.3328
1 8.22515 -3.35935 19.7908
2 6.93579 0.206255 20.6968
3 2.41718 -0.500662 21.7728
1 8.61298 2.1387 23.1708
2 5.47407 4.26547 24.0768
6 3.02133 1.12564 25.0928
1 5.69508 6.81468 26.5508
2 1.90555 6.69027 27.4568
6 1.7668 2.70841 28.4728
1 0.585967 8.88253 29.9308
2 -2.40669 6.55445 30.8368
4 0.156782 3.39847 31.8448
1 -4.76284 7.55239 33.3108
2 -5.81554 3.90989 34.2168
4 -1.88661 2.86343 35.2248
1 -8.30828 3.33234 36.6908
2 -7.01893 -0.233265 37.5968
4 -3.22526 1.22949 38.6048
1 -8.69611 -2.16571 40.0708
2 -5.5572 -4.29248 40.9768
5 -1.9968 -1.21877 42.0708
1 -5.77821 -6.84169 43.4508
2 -1.98868 -6.71728 44.3568
4 -2.20754 -2.65727 45.3648
1 -0.669098 -8.90954 46.8308
2 2.32356 -6.58146 47.7368
3 0.254915 -2.50245 48.8128
1 4.67971 -7.5794 50.2108
2 5.73241 -3.9369 51.1168
12 1.80348 -2.89044 52.1248
15 14.0967 32.7245 -44.8736
15 -10.5699 -6.15288 59.4437
15 -84.6765 50.9725 -68.0383
15 -1.97648 -51.2237 53.4271
15 60.7697 50.6462 48.2889
15 64.2834 -83.9192 -11.8606
15 -71.0437 4.08833 -65.2465
15 -44.1966 -30.6518 -48.4309
15 44.1965 48.9187 -9.58216
15 15.5066 -82.9455 -29.6673
15 36.7529 18.22 -84.0116
15 78.9481 -79.4186 -3.09567
15 51.3229 -77.0264 -39.192
15 70.3534 8.06596 -3.34686
15 36.7117 -18.2331 -39.7695
15 -2.06823 -41.0185 -36.6199
15 73.14 -24.9934 54.5373
15 -79.1753 17.8788 -63.1833
15 -40.5374 -24.9936 72.8042
15 36.9492 77.5818 76.9275
15 -79.7868 27.2659 8.07873
15 -76.7296 19.1452 15.7289
15 7.24351 -16.6007 25.7713
15 55.1204 -33.3162 -53.2315
15 -35.2953 -83.6732 15.6042
15 12.004 1.32733 61.6545
15 62.453 -12.6015 -50.4077
15 29.9215 -4.70799 54.5398
15 53.8069 41.8234 -57.5225
15 39.5423 -8.29613 -67.0095
15 29.401 -1.01416 47.3252
15 -49.5891 9.32502 -20.5985
15 53.2086 -70.5003 49.8696
15 -8.08887 71.6889 -70.5153
15 25.7484 -50.6752 -67.1198
15 -45.7162 48.3976 21.2764
15 -71.1305 23.7818 -78.3939
15 -34.4694 -33.3655 3.9669
15 -66.9984 -66.6274 -41.2785
15 -37.4521 59.9836 37.4942
15 -17.3928 2.31583 -50.5888
15 -57.1364 39.7955 45.805
15 9.33395 5.93534 62.3736
15 -27.8652 84.9153 46.9937
15 -11.3118 23.5949 83.3872
15 8.63726 64.9475 44.7161
15 -57.1552 80.8858 -18.5709
15 -48.4803 -40.6524 35.1323
15 42.5554 -20.582 55.5737
15 -85.7919 29.0347 28.4885
15 38.7711 -75.4269 -56.2644
15 75.2511 -45.4945 70.5999
15 33.9874 50.9083 -10.5336
15 9.29216 -64.0258 -12.6871
15 -30.783 11.7313 -76.161
15 -34.4645 -66.7003 75.8553
15 -76.8173 -36.7867 69.6723
15 -8.31941 1.80183 -58.049
15 -60.2559 -42.7116 8.43783
15 82.3866 -41.4346 -49.5963
15 23.8063 84.4053 -37.9544
15 54.6107 72.5876 3.61993
15 38.1418 19.5062 -32.5406
15 -59.4606 -58.2704 -9.4976
15 14.9212 -1.98463 -84.8351
15 25.8289 50.6196 -64.4666
15 14.6154 60.8712 -14.1845
15 -2.78109 -34.5171 74.6861
15 26.2388 -7.70415 -55.0942
15 -52.3922 -12.3864 -9.46008
15 -14.9197 -75.6488 -12.1236
15 34.1947 66.0307 -26.6048
15 -49.2541 17.1037 79.9702
15 5.27405 44.7119 -65.369
15 82.8453 -27.4357 19.7151
15 85.0789 85.462 -16.734
15 -66.4565 13.0086 -42.9317
15 6.42777 -76.8413 9.62007
15 -5.95491 36.4663 -85.1529
15 26.0197 71.1429 -10.4704
15 -70.5092 -30.8456 0.949522
15 4.43597 -83.7196 -20.0886
15 64.9 -45.905 84.0838
15 57.8014 46.4379 41.7269
15 79.5011 42.2143 -72.7776
15 12.1475 40.2244 -74.3844
15 82.4822 60.8367 25.693
15 -47.5182 -19.8043 35.9205
15 49.1706 61.3096 -14.6819
15 51.0865 0.260443 -30.6078
15 -46.4527 16.82 25.6154
15 41.5656 -65.8128 28.9645
15 -65.5918 86.156 70.1284
15 -68.5768 56.8885 29.4974
15 60.2189 49.3209 -15.357
15 74.5101 -25.6005 -62.2014
15 -86.9431 -30.187 85.7042
15 25.8187 9.36353 -21.1689
15 -25.3296 -28.5346 -46.9282
15 47.0573 -64.5169 40.4011
15 -70.6193 -23.9008 -29.8477
15 42.0648 -69.404 -8.59171
15 -16.0394 -47.927 -9.50455
15 -32.9799 -29.435 -39.6848
15 83.5864 -56.2848 -77.4327
15 -18.8394 -68.8435 -15.9644
15 6.02801 -68.7178 40.9174
15 4.66337 44.1697 -36.7879
15 70.5632 -68.2286 21.7463
15 -63.4337 65.8975 44.2982
15 64.0361 82.3469 -66.6714
15 -52.8804 37.343 -49.0066
15 25.5967 -65.7653 -9.86482
15 -70.9766 -11.6763 47.769
15 -23.5926 -15.1587 78.553
15 -13.9566 53.0706 -77.3593
15 57.1478 -27.9701 -59.0083
15 10.9964 63.762 72.2302
15 61.2773 47.2564 -83.0672
15 -4.04518 70.8915 69.899
15 -46.8158 47.8588 65.1772
15 -26.4184 82.0473 15.4513
15 11.6437 20.5752 36.7549
15 -85.2899 36.6674 -61.9902
15 49.5479 -73.994 9.91984
15 41.0321 -0.881815 -24.0783
15 50.7416 -30.8028 35.0203
15 78.8022 67.2624 11.7136
15 63.9636 41.471 -28.0988
15 67.9652 -49.643 -44.2761
15 50.7954 -9.38999 -83.4861
15 28.9038 51.2604 85.63
15 -42.7137 -24.1647 19.1365
15 81.11 -22.3858 -31.2649
15 -67.949 -59.9067 -18.1902
15 29.0396 68.1943 67.9968
15 -82.1075 31.8671 -49.8748
15 39.9816 23.6005 -69.6811
15 -35.3736 0.495267 58.8587
15 23.5964 -18.6084 -77.8531
15 66.3891 -54.8818 -0.174312
15 69.9718 61.0908 -35.9827
15 68.5331 -68.6917 26.9213
15 0.600722 -74.6504 -82.5332
15 56.4046 -55.5307 -55.3711
15 -48.8544 60.5777 -74.2456
15 -30.7324 18.4519 -18.778
15 -13.3447 70.1471 68.786
15 -41.5548 6.67465 -36.8911
15 -32.3392 -14.0051 -4.70408
15 54.5553 -31.102 -30.6821
15 -68.4962 -49.6378 -12.3049
15 45.4939 38.0317 0.113447
15 50.0295 7.36753 31.6516
15 81.7272 45.5819 5.16052
15 -79.5872 64.7243 -16.3692
15 52.1719 -53.0768 -84.9862
15 -53.675 20.6473 72.2297
15 -71.9577 66.1612 -8.16444
15 -21.78 -53.2467 64.8993
15 60.5847 -85.7602 -53.2715
15 -57.1662 -67.1876 -15.8405
15 17.5977 65.3751 -64.8776
15 -69.3576 28.3358 29.5588
15 49.3628 22.9942 -11.9281
15 -32.5455 30.4758 -34.2726
15 38.1541 -4.42113 -0.280609
15 40.2367 28.9727 -66.7021
15 25.3976 44.0838 86.5279
15 -69.8356 -64.765 -53.7876
15 82.1325 82.8885 -52.479
15 -58.2079 -61.3465 -32.5978
15 13.0204 43.3201 -54.2915
15 35.2116 61.0312 61.1132
15 -22.2984 23.3252 -2.96141
15 52.8423 77.8485 -59.5544
15 -68.4991 28.9337 23.0933
15 18.2891 -17.8984 -35.0028
15 38.6558 -79.5696 -77.9878
15 38.1149 -62.3364 -55.684
15 71.396 -67.2727 -59.8643
15 -68.1518 -38.4118 -34.142
15 -13.6808 61.6774 -77.8907
15 19.0966 9.82025 70.2093
15 -6.85907 74.5907 6.46572
15 77.2483 40.3642 -2.7546
15 -69.3749 58.9339 -60.8897
15 40.7872 -9.84581 8.28078
15 -81.2845 -58.2588 15.78
15 -72.2035 66.9248 40.5124
15 -40.8187 51.2521 60.3085
15 -13.6142 70.1691 -65.1721
15 39.3126 -30.5805 83.5741
15 48.4906 75.5849 6.32555
15 31.6312 -18.343 -6.15259
15 -48.9719 -28.1635 -52.8572
15 35.3423 -10.4696 -80.9922
15 61.5214 -56.7512 -3.76917
15 -17.2666 -50.9669 25.0408
15 85.5822 -36.1015 4.89684
15 39.0258 10.1486 -30.9199
15 12.2655 83.6031 -47.8196
15 34.1622 35.8469 8.66876
15 30.6675 -2.73124 -2.81514
15 -50.0757 -58.1689 65.9107
15 30.8405 -20.072 -49.3216
15 71.1287 76.7917 57.5953
15 -19.7093 -27.5437 -80.4404
15 -81.7373 -29.0303 -29.4731
15 10.2284 -77.0733 67.7443
15 66.3773 22.2611 64.2786
15 -68.5111 -30.6455 13.0567
15 27.2265 -87.0468 -76.7433
15 -62.6574 -50.0537 -47.8434
15 -83.8156 67.8556 19.1534
15 -46.0684 45.8389 34.4236
15 68.2781 29.8988 24.1465
15 38.8046 -76.8792 83.6716
15 45.433 -71.5477 -32.4275
15 -71.1089 25.7495 -22.432
15 83.7041 5.05801 86.8979
15 60.9139 23.6157 -30.8164
15 -13.0982 -36.2266 -30.7944
15 -2.77268 -11.8152 6.22077
15 36.4527 -8.56198 -12.9924
15 -31.4627 32.4385 -54.2223
15 -84.1079 13.6478 62.7454
15 27.1075 -34.6164 72.9349
15 23.7103 -76.2522 -85.6816
15 78.3516 -60.2924 27.1367
15 -31.1492 -63.657 -54.8741
15 -31.3201 84.3257 55.8105
15 24.9323 -15.8413 -67.4849
15 0.358655 17.8388 86.2755
15 74.4351 73.4449 31.6452
15 -66.856 76.4058 -41.7758
15 82.9581 16.4445 10.6765
15 68.8243 -46.914 21.4931
15 70.2115 -55.6313 48.2695
15 10.2794 0.288315 71.6813
15 42.4742 56.037 68.9382
15 11.2159 -6.09955 -33.9719
15 30.7998 -11.9617 -52.5858
15 -48.5003 75.4658 52.3218
15 -49.2936 62.8321 38.6978
15 69.4204 83.0448 28.0349
15 -59.4243 78.9342 -42.5895
15 38.321 60.6897 -2.4347
15 -27.2547 43.8324 29.0028
15 -66.054 -32.957 -57.7777
15 -81.4415 -77.5516 85.3281
15 74.5654 20.733 -7.84023
15 -46.4753 -35.536 67.2669
15 -11.9923 3.03246 55.6639
15 -46.7393 40.8076 31.4271
15 79.0273 23.1592 27.4032
15 19.9934 50.8037 19.2686
15 64.4727 2.05594 -7.11056
15 -25.0308 61.87 -50.347
15 -83.0968 82.8848 3.76478
15 -53.8056 -85.6255 13.2819
15 -55.5463 76.0087 -53.0538
15 23.6823 -57.5354 -1.52105
15 3.88038 17.5412 -85.5574
15 -27.5245 57.8707 42.319
15 -83.1662 49.8292 -21.5906
15 31.3058 -17.2462 -57.8556
15 -36.4944 -39.8423 31.2691
15 43.4638 22.1957 6.07035
15 80.1856 26.1678 1.88637
15 -3.1184 59.431 3.32966
15 -76.9053 -83.1841 -7.73043
15 -42.8903 27.5669 21.803
15 42.6575 -55.6215 -47.7246
15 44.1689 3.92279 -76.9227
15 -0.580896 7.8254 59.9752
15 -80.0271 2.6368 2.88674
15 38.3108 -40.9682 -61.9863
15 -42.6876 -47.8513 51.2502
15 46.2675 36.0991 23.6124
15 -37.4716 46.2626 27.4971
15 41.8668 -83.6965 -32.0048
15 -23.399 46.0298 -0.557498
15 15.9452 3.12982 -83.7035
15 26.0912 -84.5199 11.1907
15 -1.00233 67.4463 50.3219
15 41.7267 74.488 -34.1101
15 -42.4554 25.73 11.9905
15 -17.3729 70.1112 51.208
15 -53.1915 29.31 0.238266
15 57.4897 78.9072 -40.5679
15 -2.08202 33.7051 -37.1956
15 52.982 -76.7627 -78.2346
15 -34.6443 26.2513 11.964
15 -31.279 -34.7263 14.5129
15 66.9805 51.3402 -5.10961
15 30.2335 5.9981 -17.6904
15 83.1922 50.6115 -79.0292
15 8.11398 -53.8302 78.1508
15 -27.7468 -19.9528 20.392
15 59.5602 -49.5319 12.2303
15 -68.0765 35.4549 -41.1333
15 -18.2033 1.36808 -30.8272
15 -9.36912 53.7925 82.4929
15 -84.4739 -64.5553 -39.3022
15 17.1078 -84.6436 -75.0308
15 -75.0706 32.6587 18.0361
15 -5.69224 28.7822 -18.4211
15 2.34738 -50.1727 14.8175
15 -6.5706 9.14931 81.9335
15 -73.2474 -18.3592 -54.6672
15 26.0517 0.633084 67.8565
15 71.9872 69.4986 -17.8442
15 -50.4847 -24.3445 -28.607
15 -2.71812 79.8321 -26.1818
15 9.3199 -82.3073 -80.5919
15 -59.7128 -0.930768 35.2591
15 8.93486 -85.6522 72.1552
15 -63.3164 -5.15399 -5.76428
15 -68.4518 8.66739 62.9453
15 -36.0502 -52.3497 -23.4904
15 -55.2624 -67.4313 -41.0606
15 13.9622 -26.2713 19.0688
15 49.9105 10.3127 81.7932
15 -65.7653 -79.4742 74.5565
15 -4.87825 16.9145 79.318
15 1.59866 44.2705 -8.68161
15 -50.2111 -33.8634 -7.265
15 -65.1247 -10.1111 74.6498
15 16.1798 8.50599 -3.7516
15 -7.94368 59.5246 30.9675
15 55.6347 -82.8066 50.605
15 -72.4948 18.2243 -62.7351
15 33.6429 -18.934 34.6464
15 28.3673 2.36958 42.2411
15 15.8549 84.5601 -27.9132
15 8.1041 -0.910017 -70.7115
15 86.4913 35.9477 -17.5061
15 -7.84252 57.8918 59.4517
15 -20.2615 -12.9971 -19.1111
15 63.0557 66.128 -46.6553
15 6.9544 34.6939 -42.3931
15 -29.5094 49.2679 62.9
15 -57.5981 -62.8595 46.3357
15 71.7118 40.0642 43.827
15 -43.2702 -38.9005 -44.1518
15 -26.9129 -39.478 78.8647
15 42.6498 39.7483 49.6877
15 15.0327 -67.582 -50.3782
15 82.9903 82.5425 -71.319
15 -50.7338 2.42807 50.4437
15 -6.0581 59.9875 12.6428
15 -30.2269 -32.257 -78.584
15 13.7392 -2.78633 -54.3747
15 -26.9939 -18.1434 72.7583
15 -70.2358 25.6552 -53.211
15 -27.3188 85.8111 -5.62015
15 -35.523 41.3921 -52.9407
15 -72.9041 -30.6441 -33.4539
15 -36.2135 -34.7225 -37.9802
15 -20.4637 1.61247 51.5166
15 -57.0888 82.6232 24.4353
15 42.6228 -34.6725 79.2471
15 51.1076 66.1355 -10.6081
15 83.8017 -47.9273 58.3174
15 69.4913 -31.0942 -3.09622
15 -70.7885 28.6558 -4.35394
15 44.7883 -79.7712 6.39408
15 -75.7344 -28.9159 58.7403
15 -26.6459 37.6892 -26.716
15 -62.198 67.6692 -31.1616
15 49.3061 23.2232 21.2347
15 41.4844 -12.738 0.301372
15 -56.1925 -16.0051 39.4429
15 -84.9439 -33.5826 -78.7201
15 -0.971341 -17.3023 37.0045
15 81.7435 80.4266 30.1373
15 -55.3559 38.1461 37.4348
15 38.1069 49.4805 -78.5499
15 9.77849 -64.2342 46.2081
15 70.1313 -39.3634 26.8085
16 -48.0991 -77.1261 -37.0372
16 60.2044 51.427 37.2936
16 -26.5631 82.3033 -65.7802
16 -74.1889 84.4282 -12.2941
16 -65.8402 -3.61192 57.4724
16 58.233 -8.9372 50.8302
16 1.30147 22.7757 1.9075
16 -48.3325 -26.1862 -35.6808
16 -39.8136 70.6611 -12.8462
16 -80.6743 53.7236 34.8592
16 33.2029 -81.4443 44.8019
16 83.2346 65.8288 9.16013
16 33.4594 -47.803 4.39467
16 54.748 -34.9232 1.75409
16 -44.6149 -13.6946 85.211
16 -74.2113 -42.5304 -10.795
16 63.6877 45.8399 -75.0882
16 -21.4736 84.5761 -14.2056
16 29.9144 -42.3063 -30.6133
16 -70.0006 -35.9118 -63.9585
16 51.9274 84.3599 -58.334
16 9.66044 80.5256 -79.5739
16 -68.2482 26.9162 -40.3081
16 23.2152 -5.40461 11.8375
16 -62.0995 37.0493 85.2117
16 -63.9573 49.9067 -44.3875
16 12.3165 26.5256 -85.6165
16 24.2971 -82.0168 86.0285
16 -76.9773 34.9664 -43.3466
16 -20.5217 52.0345 7.81032
16 2.58863 16.8931 5.10139
16 31.3235 -60.5153 -1.44177
16 10.3477 -80.5789 -29.9497
16 8.49053 -57.4674 -67.1117
16 51.1718 41.9179 46.4827
16 52.6241 -20.8538 51.5347
16 51.5838 -10.7623 -0.567715
16 -78.8317 55.7848 -35.602
16 16.0474 -28.6954 68.3599
16 -65.92 -84.4407 -79.2241
16 19.7071 41.4464 -33.85
16 45.1815 39.9566 -52.3295
16 -21.8174 -36.7645 -45.8396
16 35.3017 58.7948 -16.2382
16 55.2587 22.8978 -61.3892
16 14.6726 -11.5469 4.8258
16 -20.8615 -47.032 81.1323
16 65.6396 -38.7948 49.8483
16 -57.0312 64.3214 -65.9159
16 -75.74 85.4702 -63.2878
16 -67.8954 18.1085 65.2274
16 -14.6766 -23.7788 18.1152
16 20.0627 41.4726 68.4195
16 61.2919 -10.2945 40.1455
16 -42.0151 -42.1046 -24.0256
16 -16.3355 59.6368 51.4963
16 75.5591 -48.2935 -82.6044
16 69.6227 -69.7227 -34.3305
16 32.4021 -39.6851 -57.0778
16 77.3361 -9.18286 46.5009
16 55.4947 63.2093 -64.3467
16 -13.459 -3.79674 64.1947
16 -32.1083 -29.5736 -33.1686
17 -79.0316 15.4801 11.7956
17 -15.9884 86.2134 -15.6364
17 -51.5609 74.7038 23.1389
17 -47.0965 57.2576 40.485
17 5.64183 2.59097 -86.2688
17 35.6328 -30.9228 -27.5563
17 23.4573 -72.2297 26.4701
17 46.1794 1.38018 -64.3954
17 23.3052 56.3407 -6.90021
17 77.2054 64.3778 -78.4889
17 1.93216 -38.6794 -79.3443
17 73.3645 -3.17147 82.4283
17 9.43463 36.8008 52.6171
17 -37.1492 -44.6262 -31.8607
17 -36.3492 78.0754 24.2853
17 23.1633 55.0318 70.6986
17 -13.5759 -8.57974 85.5378
17 -74.1745 -49.4692 -0.150867
17 -51.5011 60.9049 -30.879
17 28.6674 51.0414 -53.57
17 37.2473 -34.0952 -5.18055
17 44.9718 -47.7995 78.7168
17 40.3313 48.704 28.4488
17 5.87965 -75.514 70.8914
17 61.0877 -24.7944 61.8981
17 -1.69573 85.4377 29.8611
17 -18.0659 -15.207 -65.7875
17 67.321 33.2549 -54.3518
17 -50.6268 -25.1464 83.7584
17 -17.128 -74.9679 -37.4055
17 64.7603 57.0727 1.86379
17 56.4083 10.3353 -36.501
17 -2.21175 -70.8539 -24.9462
17 -18.3891 77.3027 37.3282
17 -43.5598 -11.4619 35.6971
17 73.37 57.541 -66.5787
17 -79.4862 -49.1247 18.1774
17 -20.6053 -68.8725 -35.6364
17 12.1117 -32.4306 26.2859
17 8.80139 37.5103 38.3869
17 58.4646 15.2018 8.3908
17 -26.7404 -15.4588 -68.3427
17 23.8274 69.3983 -52.1278
17 85.95 -36.0597 -61.8939
17 36.2093 7.44932 13.713
17 -15.1623 -6.24944 -15.8147
17 -12.1312 -7.16037 -79.1738
17 -72.9141 -85.4278 45.4053
17 52.5416 60.1057 -26.4617
17 -26.1364 -53.7035 45.1483
17 27.5307 56.0738 78.4869
17 52.7056 5.21437 -1.13262
17 -20.6502 77.1208 79.6867
17 50.6039 -4.62014 -6.0489
17 -14.3356 18.8851 -25.321
17 -61.0788 -80.3149 54.5874
17 -53.1838 -66.1602 56.2285
17 79.2903 73.4502 29.2653
17 -34.2402 -39.755 62.6306
17 -76.1607 39.9035 32.7545
17 38.3858 -19.6346 1.75951
17 29.8038 -53.9979 -80.0949
17 -58.3976 12.4207 84.0947
17 -65.7796 -24.0442 -7.59422
17 15.2403 48.689 -75.7779
17 76.9881 74.679 -69.024
17 44.5067 -65.5736 -48.1154
17 13.6663 -73.3521 -61.734
17 -44.1371 -20.5235 -14.4202
17 -68.5753 -9.61545 -61.5855
17 51.248 -58.2985 5.84867
17 -27.0875 -86.8922 -35.7285
17 -30.0615 -65.603 27.2961
17 49.4131 36.7061 -11.0837
17 60.7039 26.6253 -23.4736
17 78.7487 -15.9368 -1.97838
17 -31.1007 -46.4076 78.2836
17 41.5479 -27.9141 -18.4006
17 67.0312 -63.7349 10.3697
17 -14.1889 -10.7275 -18.1249
17 -62.3381 49.2539 -17.9483
17 -10.9978 -67.8764 3.51746
17 -70.7704 68.6054 -46.8453
17 5.21464 42.2405 66.8488
17 68.8099 33.9204 -36.1567
17 -20.2373 64.5537 -38.4272
17 78.5698 -53.6158 2.23408
17 -35.6847 54.9633 84.7227
17 61.7538 -46.2944 -13.0736
17 -43.4399 -21.5637 -50.8885
17 25.6805 54.5073 -31.6962
17 -57.8708 70.8057 -50.1596
17 -17.6473 -11.0485 79.1498
17 -37.8672 -29.3074 26.0014
17 13.0448 37.5241 3.48633
17 61.6865 29.0252 36.9393
17 -23.1483 11.7411 24.8715
17 -48.8283 63.1251 -7.23402
17 -51.1744 37.8101 33.5404
17 22.8208 81.4389 -75.0921
17 59.0011 20.0507 66.484
17 -59.7639 49.2487 50.2209
17 -22.8547 -55.4674 -47.8963
17 -30.7737 -6.26586 9.86511
17 82.2965 -80.2898 -39.6795
17 -1.28596 68.4654 76.4144
17 -51.4154 -41.7516 1.0867
17 60.5248 -3.51109 -22.857
17 -33.778 32.3833 -72.1157
17 -75.3297 -59.9324 29.3739
17 78.2232 -32.6276 -8.44623
17 41.3753 31.5866 23.1552
17 80.5478 -86.2559 -70.1795
17 3.3441 83.1094 -63.4005
17 40.079 30.408 -36.6867
17 -45.9031 3.86404 46.871
17 18.3087 57.1549 -7.81452
17 33.2618 56.9173 47.3896
17 42.585 68.6564 74.5259
17 -15.1099 59.8108 -45.1704
17 63.5127 14.1173 73.4849
17 -0.400942 7.59627 74.2978
17 16.4884 -76.1284 70.3384
17 40.1566 61.6737 -21.9758
17 45.2215 14.6839 -78.6366
17 -78.5341 55.8496 12.2963
17 55.4057 -12.9105 -17.6177
17 -39.4776 -66.7175 -47.7692
17 -79.1568 62.9364 -66.1816
17 82.4379 -39.2423 80.698
17 -49.8013 -62.7984 7.74645
17 -63.3852 23.8695 -71.7261
17 -76.1562 -46.711 -60.7857
17 81.2511 80.5144 -86.1808
17 -27.7935 38.6671 15.5719
17 -19.3613 47.2019 -15.6472
17 80.0038 15.5388 58.5111
17 -24.6826 63.13 78.8625
17 14.617 71.0419 54.73
17 35.5042 66.411 -71.581
17 29.1334 -70.4591 -47.3106
17 -50.189 -46.7755 63.6277
17 -34.8463 -35.8628 -70.1521
17 -8.56318 -41.6806 -76.7065
17 -7.67516 17.5947 49.0295
17 -79.172 85.3023 9.16255
17 -7.75044 78.2373 -62.3675
17 -36.3081 -33.5141 -86.3063
17 -44.5145 68.1716 71.8044
17 -76.8532 16.607 51.1467
17 -61.3655 -41.3284 67.7564
17 -21.6073 -4.44861 -66.0879
17 -45.0484 47.7739 -14.8819
17 -28.1317 -47.8581 30.5063
17 -17.7694 31.5356 -38.9678
17 -55.8087 39.4324 -40.7343
17 65.124 -4.62622 3.98886
17 65.8865 37.9281 -14.9083
17 50.6221 48.1437 -85.3701
17 14.7 73.847 -39.6297
17 -4.61238 -34.8291 42.9905
17 16.3685 7.19126 3.69562
17 -85.5822 66.1283 42.9064
17 31.9929 -38.7098 -12.6269
17 80.094 -7.44973 -60.2633
17 -47.7091 -54.0959 -28.5814
17 -10.2062 -76.0407 53.8612
17 80.8515 76.9146 4.72047
17 -21.1256 40.468 -34.2047
17 -19.4269 -31.9008 -47.4265
17 28.0122 50.5556 4.81318
17 -16.0661 -20.1447 -75.0644
17 74.6983 -18.6581 78.1328
17 -69.1598 -80.7088 31.9732
17 -42.3543 -41.3491 64.9461
17 16.1331 35.5135 75.9743
17 -17.0745 29.2962 65.8201
17 74.7148 -78.8982 19.2192
17 -46.5587 -11.2563 74.3872
17 -6.91641 -70.3128 37.874
17 84.9656 0.689879 -69.3395
17 -77.1676 -11.6806 -0.928711
17 -86.1036 -68.2135 12.4061
17 -46.6807 -50.3044 18.7662
17 72.3614 -5.58993 64.4858
17 39.1442 -6.53134 -44.8421
17 -49.9542 21.6247 39.1411
17 -62.6357 -72.3605 55.897
17 62.3071 -74.4637 -30.4819
17 80.0364 -64.5625 44.9063
17 -7.96109 -63.5973 63.7616
17 -82.6237 -23.2092 -73.6116
17 23.2112 -37.9166 7.86726
17 0.628229 -74.7467 18.4104
17 -73.5101 51.4662 -75.1897
17 19.114 19.4075 -72.4504
17 -28.8137 43.8406 -57.7421
17 -59.9855 19.0788 -45.137
17 -3.39864 12.0465 -22.6308
17 -45.5611 -82.9834 0.840688
17 -68.8683 -78.5384 64.7003
17 -55.4111 31.7417 -60.2851
17 -29.1334 -41.1402 -83.5656
17 -17.2543 14.6453 -14.2039
17 62.8082 -53.3095 -81.8652
17 77.4267 4.94559 49.0442
17 -67.3842 32.0289 -18.9458
17 -25.4525 -58.4386 80.1695
17 38.9855 -16.9309 84.2549
17 -47.2426 1.2696 -81.3523
17 -69.6111 32.9273 37.4582
17 -42.8274 -14.6165 69.8281
17 -3.72163 43.3189 -58.3809
17 -0.218414 -61.0042 43.3332
17 72.6465 -85.2648 77.0926
17 77.8501 79.2307 -5.03065
17 -66.1891 -13.606 -31.4404
17 -73.0884 -61.6893 38.6975
17 -75.9023 -21.8631 -47.1017
17 -70.1858 -4.40534 72.8944
17 54.3412 39.8361 -28.7909
17 37.1005 -50.9544 -72.5408
17 65.7884 35.896 -46.4762
17 22.0528 21.4737 -44.6722
17 12.0766 12.255 -52.5103
17 -80.0228 -34.9884 -40.6639
17 -53.0246 -14.1087 32.7989
17 2.60379 -0.128296 58.1784
17 -45.7675 11.0382 -50.7535
17 -5.80039 27.9212 31.91
17 -19.9748 -4.80641 -15.3227
17 38.3031 -54.7747 20.7917
17 52.8311 -76.0551 -30.3811
17 -80.714 33.0665 78.1614
17 -38.3174 -41.9256 3.3476
17 -3.7589 -34.8797 55.428
17 42.646 -0.835526 -45.7495
17 -11.6239 -85.3005 41.1911
17 -4.19889 37.2692 80.1504
17 -59.3577 -69.7744 -11.7248
17 12.3884 55.5975 20.5693
17 -53.8887 21.3597 31.583
17 2.79903 27.7146 -22.4193
17 -6.10834 76.466 22.7239
17 84.3081 -14.3617 74.913
17 52.6673 -58.7845 -12.9913
17 -80.151 16.6605 -11.2231
17 48.1089 63.215 31.8465
17 -73.7995 -28.0527 -17.9531
17 -5.37385 -75.022 -32.1301
17 -71.8734 -41.8419 76.2985
17 46.7784 48.026 16.9442
17 34.9273 -82.3134 -66.8049
17 -65.1329 -75.3956 36.9244
17 10.7129 59.7821 13.0706
17 24.6062 79.4023 -15.3236
17 -63.1213 -13.0403 -3.27676
17 -18.9529 -38.1352 2.90736
17 85.0601 -13.7761 44.825
17 4.33263 -53.7618 83.9819
17 -3.68774 68.2343 -85.4004
17 -33.5682 13.8143 73.1238
17 66.5712 56.3737 59.1064
17 51.5892 -6.0889 51.4399
17 -50.8032 17.8586 -48.6692
17 32.9888 -77.3928 40.5547
17 -12.1298 -9.27697 -84.6493
17 77.8464 -11.2857 -11.3565
17 35.6026 80.1157 21.9505
17 32.5156 -10.6408 3.11594
17 34.1841 -81.1334 6.21736
17 47.5258 -27.6328 -67.0372
17 33.5807 -48.1304 76.4053
17 -30.0106 -47.3444 -85.9626
17 8.38897 72.7133 -76.2866
17 -38.1251 -26.4853 1.5052
17 -35.7056 -35.7077 77.2883
17 40.0067 86.9636 70.3352
17 -25.1117 32.4105 -27.3744
17 65.0731 -20.4742 -21.4391
17 -15.7784 -60.0173 37.9969
17 4.25328 60.6322 76.9353
17 -6.4102 -20.8183 80.3942
17 65.0124 -42.44 -68.3746
17 75.7946 6.50374 -7.7911
17 -9.76903 57.867 43.57
17 -19.5495 10.8048 43.4648
17 23.4112 50.7662 55.401
17 -85.0966 -52.0809 82.4526
17 39.9691 39.2412 56.016
17 29.8356 -54.2378 -51.8711
17 23.161 -77.4004 71.4376
17 74.905 63.4065 35.5014
17 -19.9549 -33.4313 6.29952
17 -63.4537 34.088 -69.9645
17 67.0799 84.8736 -84.2713
17 -31.1825 21.216 53.5637
17 -62.8502 23.1882 -85.586
17 -67.4664 -23.9115 40.724
17 75.6184 -81.1447 73.5549
17 -63.3215 29.0851 83.2233
17 -78.9527 -1.77289 70.8353
17 -49.9551 -13.9367 47.173
17 72.615 53.1772 -73.327
17 -8.15425 76.7923 47.8297
17 8.95009 56.8033 45.6346
17 11.7476 -61.4479 -20.2182
17 -21.7575 -37.2293 -84.0988
17 -66.6195 -29.0774 -15.0173
17 -80.1333 -5.33014 -73.001
17 -83.9788 2.78592 12.2949
17 73.9253 39.8996 85.427
17 34.0296 25.4458 51.5354
17 47.7713 -69.7772 41.2589
17 8.53226 26.2417 10.9934
17 -32.902 -49.0795 36.6143
17 33.9486 16.2318 86.4538
17 36.9187 83.0259 -18.242
17 -71.0916 -70.6623 39.7494
17 0.95984 -63.7268 -52.6495
17 15.0276 -60.6368 37.2052
17 -61.388 47.3181 -71.587
17 77.2162 8.0206 -54.2955
17 31.4063 -70.5159 59.015
17 -44.6691 -16.3491 -77.1333
17 79.014 -69.4693 26.1672
17 78.399 54.5182 22.1244
17 -26.9118 70.4954 38.5309
17 -74.2312 -15.6136 61.8729
17 -39.8119 86.4828 -85.8327
17 84.462 -60.3322 -72.5442
17 -12.5708 -34.6515 61.8427
17 2.91097 -44.5041 -17.2055
17 35.6843 73.971 -0.65262
17 7.63053 -57.7669 70.0671
17 17.566 -65.8216 -86.471
17 -43.3356 -74.4914 55.116
17 65.8576 -14.3344 38.5425
17 17.3197 -1.49679 -64.1398
17 -7.87618 45.7601 -64.7258
17 -6.64007 43.1533 -37.9892
17 7.88456 -56.4863 14.4281
17 -17.3415 33.4935 56.9928
17 52.5218 -17.891 43.895
17 -35.1996 76.8083 73.197
17 -52.2014 7.30549 -79.6935
17 -51.6036 51.0387 -67.1161
17 -83.5564 29.8276 5.61835
17 42.055 -39.9215 -82.9472
17 64.9839 39.2711 49.8816
17 -86.8107 -54.4378 5.96613
17 -37.7311 40.5156 36.5486
17 63.7658 -63.8947 -17.0267
17 33.6899 75.6959 52.1511
17 -9.48386 -46.5725 41.8906
17 -23.3557 -11.7051 -37.8728
17 -15.9803 23.7601 -73.9028
17 3.97241 27.2726 42.9935
17 -77.478 -17.7413 -83.9968
17 -73.3565 -39.8262 42.3431
17 63.5939 -39.568 74.9741
17 -17.5087 9.76967 28.4209
17 -68.0289 -13.5333 51.595
17 -32.9046 10.6727 80.7183
17 -78.0828 74.3859 -18.0556
17 -15.7208 62.3779 32.9771
17 -59.7961 71.9687 -71.833
17 -56.7241 85.681 -24.5903
17 72.6878 62.2062 22.9104
17 60.5931 -42.3714 -54.3887
17 1.94526 -23.3315 19.1468
17 -33.5286 65.7505 39.3034
17 -80.3753 -54.2228 -37.0927
17 -86.7258 -45.2368 -49.7756
17 -17.7125 12.9452 8.62994
17 -66.0996 -62.5717 -31.161
17 -50.8638 -32.227 -32.5488
17 11.6147 -46.608 -57.4115
17 -52.5437 -73.0836 -12.714
17 -19.8637 15.9304 51.0233
17 86.3519 69.4707 29.705
17 38.5865 76.1642 62.551
17 -85.5749 76.5072 -69.7546
17 -48.2817 -28.2741 30.2594
17 47.417 46.7867 27.4838
17 -55.7127 67.7559 51.9809
17 0.195036 -70.1767 -67.3149
17 54.715 28.5067 -26.8541
17 84.3723 63.0318 -12.8689
17 -15.4105 -43.9007 -84.0073
17 -51.456 -44.6175 72.5322
17 65.3179 81.0378 61.6276
17 40.8001 82.5316 51.066
17 58.1143 -52.8189 -64.2769
17 1.30483 81.6669 69.5786
17 80.7695 26.1492 67.1578
17 -73.6143 -6.20458 8.59576
17 60.8004 62.7573 27.7269
17 63.8619 -75.7675 70.1782
17 49.3253 76.6191 64.1471
17 23.8841 30.3504 59.61
17 -12.1187 1.3959 -80.2777
17 10.6732 -84.3681 -85.6796
17 -6.81699 -55.5795 -59.7254
17 -43.6201 -61.8788 53.4926
17 -63.531 -48.4243 -39.7808
17 32.1335 25.245 38.387
17 -70.3765 -1.02344 14.0754
17 44.4192 -24.2304 25.3767
17 27.5286 -61.9739 14.927
17 4.6069 48.979 -41.7913
17 -22.8519 -50.2086 46.6734
17 -16.0608 47.5334 49.3741
17 -14.6716 -46.3524 80.8635
17 12.6718 -2.90362 -68.0842
17 -20.9044 20.6341 -29.4396
17 26.3836 -34.3011 82.8742
17 -22.2983 -17.6088 -5.21806
17 78.8459 -60.2585 57.6204
17 17.1538 54.3389 82.7153
17 -54.9879 -28.123 44.6255
17 -9.71043 36.0939 81.4857
17 -50.1058 -67.0357 41.9503
17 80.1317 -69.0355 -7.30563
17 -75.0212 -2.87117 -73.7403
17 -17.392 -63.5564 -20.9726
17 60.2641 -7.00871 75.2977
17 26.4622 -44.8428 -72.624
17 -15.9812 32.5156 50.5387
17 -21.5643 69.4785 70.5718
17 -66.6827 68.7468 -11.1355
17 -71.0847 61.8097 6.89774